# Force coefficients
# liftDir     : (0.000000e+00 0.000000e+00 1.000000e+00)
# dragDir     : (1.000000e+00 0.000000e+00 0.000000e+00)
# pitchAxis   : (0.000000e+00 1.000000e+00 0.000000e+00)
# magUInf     : 2.000000e+01
# lRef        : 1.420000e+00
# Aref        : 7.500000e-01
# CofR        : (7.200000e-01 0.000000e+00 0.000000e+00)
# Time        	Cm            	Cd            	Cl            	Cl(f)         	Cl(r)         
103           	2.758730e-03	2.259165e+01	3.459241e-03	4.488351e-03	-1.029110e-03
104           	2.799566e-03	2.249342e+01	3.511232e-03	4.555182e-03	-1.043951e-03
105           	2.840749e-03	2.239668e+01	3.563602e-03	4.622551e-03	-1.058948e-03
106           	2.882381e-03	2.230141e+01	3.616654e-03	4.690708e-03	-1.074053e-03
107           	2.924316e-03	2.220758e+01	3.670208e-03	4.759420e-03	-1.089212e-03
108           	2.966529e-03	2.211514e+01	3.724109e-03	4.828583e-03	-1.104474e-03
109           	3.009119e-03	2.202408e+01	3.778468e-03	4.898353e-03	-1.119885e-03
110           	3.052150e-03	2.193435e+01	3.833545e-03	4.968923e-03	-1.135378e-03
111           	3.095646e-03	2.184584e+01	3.891354e-03	5.041323e-03	-1.149969e-03
112           	3.139038e-03	2.175887e+01	3.943610e-03	5.110844e-03	-1.167233e-03
113           	3.183638e-03	2.167287e+01	4.003351e-03	5.185314e-03	-1.181963e-03
114           	3.227739e-03	2.158836e+01	4.057195e-03	5.256336e-03	-1.199141e-03
115           	3.272986e-03	2.150479e+01	4.117904e-03	5.331938e-03	-1.214034e-03
116           	3.317858e-03	2.142267e+01	4.173108e-03	5.404412e-03	-1.231304e-03
117           	3.363959e-03	2.134144e+01	4.234958e-03	5.481438e-03	-1.246481e-03
118           	3.409623e-03	2.126159e+01	4.291393e-03	5.555319e-03	-1.263927e-03
119           	3.456444e-03	2.118262e+01	4.354084e-03	5.633486e-03	-1.279402e-03
120           	3.502798e-03	2.110495e+01	4.411529e-03	5.708563e-03	-1.297034e-03
121           	3.550474e-03	2.102814e+01	4.475297e-03	5.788123e-03	-1.312826e-03
122           	3.597771e-03	2.095257e+01	4.534198e-03	5.864870e-03	-1.330673e-03
123           	3.646387e-03	2.087783e+01	4.599113e-03	5.945943e-03	-1.346830e-03
124           	3.694538e-03	2.080428e+01	4.659161e-03	6.024119e-03	-1.364958e-03
125           	3.744030e-03	2.073154e+01	4.725074e-03	6.106567e-03	-1.381493e-03
126           	3.792987e-03	2.065993e+01	4.786177e-03	6.186075e-03	-1.399898e-03
127           	3.843380e-03	2.058910e+01	4.853094e-03	6.269927e-03	-1.416833e-03
128           	3.893186e-03	2.051936e+01	4.915347e-03	6.350860e-03	-1.435513e-03
129           	3.944461e-03	2.045037e+01	4.983359e-03	6.436140e-03	-1.452781e-03
130           	3.995091e-03	2.038242e+01	5.046816e-03	6.518499e-03	-1.471683e-03
131           	4.046828e-03	2.031528e+01	5.113974e-03	6.603815e-03	-1.489841e-03
132           	4.098888e-03	2.024895e+01	5.181646e-03	6.689712e-03	-1.508065e-03
133           	4.151258e-03	2.018353e+01	5.249422e-03	6.775969e-03	-1.526546e-03
134           	4.204087e-03	2.011889e+01	5.317877e-03	6.863025e-03	-1.545148e-03
135           	4.257320e-03	2.005512e+01	5.386749e-03	6.950695e-03	-1.563945e-03
136           	4.310960e-03	1.999209e+01	5.456324e-03	7.039122e-03	-1.582798e-03
137           	4.365015e-03	1.992990e+01	5.526372e-03	7.128201e-03	-1.601829e-03
138           	4.419511e-03	1.986842e+01	5.597184e-03	7.218103e-03	-1.620919e-03
139           	4.474421e-03	1.980775e+01	5.668428e-03	7.308635e-03	-1.640207e-03
140           	4.529772e-03	1.974777e+01	5.740382e-03	7.399963e-03	-1.659581e-03
141           	4.585517e-03	1.968857e+01	5.812729e-03	7.491881e-03	-1.679152e-03
142           	4.641679e-03	1.963004e+01	5.885823e-03	7.584590e-03	-1.698767e-03
143           	4.698215e-03	1.957226e+01	5.959328e-03	7.677879e-03	-1.718551e-03
144           	4.755163e-03	1.951511e+01	6.033607e-03	7.771967e-03	-1.738360e-03
145           	4.812554e-03	1.945870e+01	6.108442e-03	7.866774e-03	-1.758333e-03
146           	4.870366e-03	1.940291e+01	6.184005e-03	7.962369e-03	-1.778363e-03
147           	4.928570e-03	1.934782e+01	6.259940e-03	8.058540e-03	-1.798600e-03
148           	4.987227e-03	1.929332e+01	6.336680e-03	8.155566e-03	-1.818887e-03
149           	5.046312e-03	1.923951e+01	6.413883e-03	8.253254e-03	-1.839371e-03
150           	5.105836e-03	1.918627e+01	6.491859e-03	8.351766e-03	-1.859907e-03
151           	5.165791e-03	1.913369e+01	6.570296e-03	8.450939e-03	-1.880643e-03
152           	5.226172e-03	1.908166e+01	6.649457e-03	8.550900e-03	-1.901443e-03
153           	5.287022e-03	1.903028e+01	6.729154e-03	8.651599e-03	-1.922445e-03
154           	5.348296e-03	1.897943e+01	6.809524e-03	8.753058e-03	-1.943534e-03
155           	5.409957e-03	1.892920e+01	6.890279e-03	8.855096e-03	-1.964818e-03
156           	5.472080e-03	1.887948e+01	6.971824e-03	8.957992e-03	-1.986168e-03
157           	5.534662e-03	1.883037e+01	7.053831e-03	9.061577e-03	-2.007746e-03
158           	5.597672e-03	1.878174e+01	7.136559e-03	9.165952e-03	-2.029393e-03
159           	5.661127e-03	1.873371e+01	7.219763e-03	9.271009e-03	-2.051246e-03
160           	5.725016e-03	1.868615e+01	7.303708e-03	9.376870e-03	-2.073162e-03
161           	5.789343e-03	1.863916e+01	7.388158e-03	9.483422e-03	-2.095264e-03
162           	5.854101e-03	1.859263e+01	7.473342e-03	9.590772e-03	-2.117430e-03
163           	5.919289e-03	1.854666e+01	7.558987e-03	9.698783e-03	-2.139796e-03
164           	5.984905e-03	1.850112e+01	7.645340e-03	9.807575e-03	-2.162235e-03
165           	6.050929e-03	1.845612e+01	7.732110e-03	9.916984e-03	-2.184874e-03
166           	6.117364e-03	1.841155e+01	7.819589e-03	1.002716e-02	-2.207569e-03
167           	6.184220e-03	1.836750e+01	7.907528e-03	1.013798e-02	-2.230455e-03
168           	6.251508e-03	1.832386e+01	7.996238e-03	1.024963e-02	-2.253389e-03
169           	6.319249e-03	1.828074e+01	8.085467e-03	1.036198e-02	-2.276516e-03
170           	6.387437e-03	1.823800e+01	8.175511e-03	1.047519e-02	-2.299681e-03
171           	6.456036e-03	1.819577e+01	8.266040e-03	1.058906e-02	-2.323016e-03
172           	6.525059e-03	1.815391e+01	8.357339e-03	1.070373e-02	-2.346390e-03
173           	6.594493e-03	1.811254e+01	8.449058e-03	1.081902e-02	-2.369964e-03
174           	6.664347e-03	1.807153e+01	8.541538e-03	1.093512e-02	-2.393578e-03
175           	6.734603e-03	1.803101e+01	8.634425e-03	1.105182e-02	-2.417390e-03
176           	6.805280e-03	1.799082e+01	8.728094e-03	1.116933e-02	-2.441233e-03
177           	6.876368e-03	1.795111e+01	8.822225e-03	1.128748e-02	-2.465256e-03
178           	6.947857e-03	1.791172e+01	8.917113e-03	1.140641e-02	-2.489301e-03
179           	7.019758e-03	1.787280e+01	9.012463e-03	1.152599e-02	-2.513526e-03
180           	7.092020e-03	1.783419e+01	9.108482e-03	1.164626e-02	-2.537779e-03
181           	7.164679e-03	1.779603e+01	9.204924e-03	1.176714e-02	-2.562217e-03
182           	7.237757e-03	1.775818e+01	9.302135e-03	1.188882e-02	-2.586689e-03
183           	7.311278e-03	1.772076e+01	9.399843e-03	1.201120e-02	-2.611356e-03
184           	7.385207e-03	1.768364e+01	9.498287e-03	1.213435e-02	-2.636063e-03
185           	7.459552e-03	1.764694e+01	9.597172e-03	1.225814e-02	-2.660966e-03
186           	7.534311e-03	1.761053e+01	9.696814e-03	1.238272e-02	-2.685904e-03
187           	7.609494e-03	1.757453e+01	9.796937e-03	1.250796e-02	-2.711025e-03
188           	7.685089e-03	1.753881e+01	9.897814e-03	1.263400e-02	-2.736182e-03
189           	7.761084e-03	1.750350e+01	9.999126e-03	1.276065e-02	-2.761521e-03
190           	7.837474e-03	1.746845e+01	1.010118e-02	1.288806e-02	-2.786885e-03
191           	7.914275e-03	1.743379e+01	1.020372e-02	1.301613e-02	-2.812415e-03
192           	7.991477e-03	1.739940e+01	1.030701e-02	1.314498e-02	-2.837971e-03
193           	8.069105e-03	1.736538e+01	1.041077e-02	1.327449e-02	-2.863718e-03
194           	8.147130e-03	1.733162e+01	1.051527e-02	1.340476e-02	-2.889497e-03
195           	8.225551e-03	1.729823e+01	1.062018e-02	1.353564e-02	-2.915461e-03
196           	8.304342e-03	1.726509e+01	1.072580e-02	1.366724e-02	-2.941444e-03
197           	8.383529e-03	1.723231e+01	1.083185e-02	1.379945e-02	-2.967605e-03
198           	8.463094e-03	1.719976e+01	1.093860e-02	1.393240e-02	-2.993792e-03
199           	8.543067e-03	1.716757e+01	1.104581e-02	1.406597e-02	-3.020162e-03
200           	8.623426e-03	1.713560e+01	1.115371e-02	1.420028e-02	-3.046568e-03
201           	8.704194e-03	1.710399e+01	1.126208e-02	1.433523e-02	-3.073155e-03
202           	8.785356e-03	1.707259e+01	1.137120e-02	1.447096e-02	-3.099755e-03
203           	8.866926e-03	1.704153e+01	1.148076e-02	1.460730e-02	-3.126548e-03
204           	8.948880e-03	1.701068e+01	1.159108e-02	1.474442e-02	-3.153341e-03
205           	9.031224e-03	1.698017e+01	1.170179e-02	1.488212e-02	-3.180329e-03
206           	9.113933e-03	1.694986e+01	1.181319e-02	1.502053e-02	-3.207337e-03
207           	9.197028e-03	1.691988e+01	1.192498e-02	1.515952e-02	-3.234536e-03
208           	9.280508e-03	1.689009e+01	1.203752e-02	1.529927e-02	-3.261750e-03
209           	9.364396e-03	1.686062e+01	1.215048e-02	1.543963e-02	-3.289158e-03
210           	9.448657e-03	1.683134e+01	1.226418e-02	1.558075e-02	-3.316565e-03
211           	9.533324e-03	1.680237e+01	1.237830e-02	1.572247e-02	-3.344176e-03
212           	9.618379e-03	1.677359e+01	1.249315e-02	1.586495e-02	-3.371805e-03
213           	9.703820e-03	1.674511e+01	1.260839e-02	1.600802e-02	-3.399623e-03
214           	9.789620e-03	1.671681e+01	1.272432e-02	1.615178e-02	-3.427459e-03
215           	9.875797e-03	1.668881e+01	1.284065e-02	1.629612e-02	-3.455474e-03
216           	9.962322e-03	1.666098e+01	1.295763e-02	1.644114e-02	-3.483506e-03
217           	1.004925e-02	1.663344e+01	1.307509e-02	1.658679e-02	-3.511703e-03
218           	1.013654e-02	1.660607e+01	1.319323e-02	1.673315e-02	-3.539924e-03
219           	1.022422e-02	1.657898e+01	1.331178e-02	1.688011e-02	-3.568331e-03
220           	1.031228e-02	1.655205e+01	1.343104e-02	1.702780e-02	-3.596753e-03
221           	1.040072e-02	1.652541e+01	1.355071e-02	1.717607e-02	-3.625364e-03
222           	1.048953e-02	1.649892e+01	1.367111e-02	1.732509e-02	-3.653981e-03
223           	1.057873e-02	1.647270e+01	1.379190e-02	1.747468e-02	-3.682780e-03
224           	1.066828e-02	1.644663e+01	1.391338e-02	1.762498e-02	-3.711593e-03
225           	1.075822e-02	1.642083e+01	1.403526e-02	1.777585e-02	-3.740594e-03
226           	1.084851e-02	1.639518e+01	1.415783e-02	1.792742e-02	-3.769595e-03
227           	1.093918e-02	1.636979e+01	1.428080e-02	1.807958e-02	-3.798779e-03
228           	1.103019e-02	1.634454e+01	1.440445e-02	1.823241e-02	-3.827968e-03
229           	1.112158e-02	1.631955e+01	1.452846e-02	1.838581e-02	-3.857348e-03
230           	1.121333e-02	1.629469e+01	1.465320e-02	1.853993e-02	-3.886726e-03
231           	1.130544e-02	1.627009e+01	1.477831e-02	1.869460e-02	-3.916290e-03
232           	1.138028e-02	1.624551e+01	1.488234e-02	1.882145e-02	-3.939109e-03
233           	1.146559e-02	1.622128e+01	1.499926e-02	1.896522e-02	-3.965960e-03
234           	1.155625e-02	1.619717e+01	1.512330e-02	1.911790e-02	-3.994599e-03
235           	1.164823e-02	1.617331e+01	1.524865e-02	1.927255e-02	-4.023900e-03
236           	1.174035e-02	1.614958e+01	1.537437e-02	1.942754e-02	-4.053165e-03
237           	1.183271e-02	1.612609e+01	1.550030e-02	1.958286e-02	-4.082561e-03
238           	1.192540e-02	1.610272e+01	1.562691e-02	1.973885e-02	-4.111938e-03
239           	1.201846e-02	1.607958e+01	1.575392e-02	1.989542e-02	-4.141506e-03
240           	1.211190e-02	1.605656e+01	1.588164e-02	2.005272e-02	-4.171074e-03
241           	1.220570e-02	1.603377e+01	1.600975e-02	2.021058e-02	-4.200829e-03
242           	1.229986e-02	1.601109e+01	1.613859e-02	2.036915e-02	-4.230569e-03
243           	1.239438e-02	1.598863e+01	1.626775e-02	2.052826e-02	-4.260504e-03
244           	1.248923e-02	1.596628e+01	1.639762e-02	2.068804e-02	-4.290425e-03
245           	1.258444e-02	1.594416e+01	1.652783e-02	2.084836e-02	-4.320527e-03
246           	1.267999e-02	1.592213e+01	1.665877e-02	2.100938e-02	-4.350607e-03
247           	1.277589e-02	1.590033e+01	1.679004e-02	2.117091e-02	-4.380867e-03
248           	1.287211e-02	1.587862e+01	1.692202e-02	2.133312e-02	-4.411104e-03
249           	1.296868e-02	1.585713e+01	1.705431e-02	2.149583e-02	-4.441529e-03
250           	1.306557e-02	1.583574e+01	1.718727e-02	2.165921e-02	-4.471936e-03
251           	1.316281e-02	1.581455e+01	1.732056e-02	2.182309e-02	-4.502529e-03
252           	1.326037e-02	1.579346e+01	1.745455e-02	2.198764e-02	-4.533098e-03
253           	1.335828e-02	1.577258e+01	1.758887e-02	2.215271e-02	-4.563846e-03
254           	1.345650e-02	1.575179e+01	1.772386e-02	2.231843e-02	-4.594571e-03
255           	1.355505e-02	1.573119e+01	1.785916e-02	2.248463e-02	-4.625473e-03
256           	1.365391e-02	1.571069e+01	1.799512e-02	2.265147e-02	-4.656350e-03
257           	1.375310e-02	1.569038e+01	1.813140e-02	2.281880e-02	-4.687404e-03
258           	1.385260e-02	1.567016e+01	1.826832e-02	2.298676e-02	-4.718434e-03
259           	1.395242e-02	1.565014e+01	1.840555e-02	2.315519e-02	-4.749643e-03
260           	1.405253e-02	1.563020e+01	1.854342e-02	2.332424e-02	-4.780824e-03
261           	1.415298e-02	1.561045e+01	1.868160e-02	2.349377e-02	-4.812178e-03
262           	1.425372e-02	1.559078e+01	1.882044e-02	2.366394e-02	-4.843504e-03
263           	1.435479e-02	1.557129e+01	1.895957e-02	2.383458e-02	-4.875001e-03
264           	1.445615e-02	1.555189e+01	1.909938e-02	2.400584e-02	-4.906460e-03
265           	1.455782e-02	1.553267e+01	1.923948e-02	2.417757e-02	-4.938083e-03
266           	1.465978e-02	1.551352e+01	1.938024e-02	2.434990e-02	-4.969664e-03
267           	1.476207e-02	1.549456e+01	1.952132e-02	2.452273e-02	-5.001405e-03
268           	1.486463e-02	1.547567e+01	1.966299e-02	2.469612e-02	-5.033129e-03
269           	1.496751e-02	1.545695e+01	1.980501e-02	2.487001e-02	-5.065007e-03
270           	1.507067e-02	1.543831e+01	1.994761e-02	2.504447e-02	-5.096861e-03
271           	1.517412e-02	1.541985e+01	2.009037e-02	2.521930e-02	-5.128931e-03
272           	1.527788e-02	1.540145e+01	2.023401e-02	2.539489e-02	-5.160880e-03
273           	1.538192e-02	1.538322e+01	2.037770e-02	2.557077e-02	-5.193066e-03
274           	1.548627e-02	1.536506e+01	2.052228e-02	2.574741e-02	-5.225130e-03
275           	1.559088e-02	1.534707e+01	2.066690e-02	2.592433e-02	-5.257434e-03
276           	1.569582e-02	1.532915e+01	2.081237e-02	2.610200e-02	-5.289633e-03
277           	1.580102e-02	1.531139e+01	2.095791e-02	2.627997e-02	-5.322066e-03
278           	1.590653e-02	1.529369e+01	2.110423e-02	2.645864e-02	-5.354416e-03
279           	1.601231e-02	1.527616e+01	2.125067e-02	2.663765e-02	-5.386979e-03
280           	1.611839e-02	1.525869e+01	2.139786e-02	2.681732e-02	-5.419463e-03
281           	1.622475e-02	1.524138e+01	2.154520e-02	2.699735e-02	-5.452144e-03
282           	1.633139e-02	1.522413e+01	2.169326e-02	2.717802e-02	-5.484761e-03
283           	1.643833e-02	1.520703e+01	2.184157e-02	2.735911e-02	-5.517542e-03
284           	1.654552e-02	1.519000e+01	2.199045e-02	2.754074e-02	-5.550292e-03
285           	1.665299e-02	1.517312e+01	2.213955e-02	2.772276e-02	-5.583215e-03
286           	1.676073e-02	1.515629e+01	2.228931e-02	2.790539e-02	-5.616077e-03
287           	1.686872e-02	1.513962e+01	2.243910e-02	2.808827e-02	-5.649175e-03
288           	1.697704e-02	1.512301e+01	2.258983e-02	2.827196e-02	-5.682130e-03
289           	1.708559e-02	1.510654e+01	2.274052e-02	2.845585e-02	-5.715330e-03
290           	1.719444e-02	1.509012e+01	2.289207e-02	2.864047e-02	-5.748406e-03
291           	1.730352e-02	1.507385e+01	2.304363e-02	2.882534e-02	-5.781705e-03
292           	1.741289e-02	1.505764e+01	2.319597e-02	2.901088e-02	-5.814907e-03
293           	1.752251e-02	1.504157e+01	2.334839e-02	2.919670e-02	-5.848312e-03
294           	1.763241e-02	1.502555e+01	2.350153e-02	2.938317e-02	-5.881642e-03
295           	1.774255e-02	1.500967e+01	2.365481e-02	2.956996e-02	-5.915150e-03
296           	1.785297e-02	1.499385e+01	2.380874e-02	2.975734e-02	-5.948602e-03
297           	1.796366e-02	1.497816e+01	2.396289e-02	2.994510e-02	-5.982210e-03
298           	1.807460e-02	1.496252e+01	2.411758e-02	3.013339e-02	-6.015804e-03
299           	1.818582e-02	1.494702e+01	2.427261e-02	3.032212e-02	-6.049516e-03
300           	1.829727e-02	1.493157e+01	2.442805e-02	3.051130e-02	-6.083247e-03
301           	1.840901e-02	1.491624e+01	2.458392e-02	3.070097e-02	-6.117053e-03
302           	1.852095e-02	1.490097e+01	2.474008e-02	3.089100e-02	-6.150912e-03
303           	1.863320e-02	1.488583e+01	2.489678e-02	3.108159e-02	-6.184810e-03
304           	1.874563e-02	1.487074e+01	2.505368e-02	3.127247e-02	-6.218787e-03
305           	1.885837e-02	1.485577e+01	2.521119e-02	3.146397e-02	-6.252780e-03
306           	1.897129e-02	1.484085e+01	2.536883e-02	3.165570e-02	-6.286875e-03
307           	1.908453e-02	1.482606e+01	2.552714e-02	3.184810e-02	-6.320964e-03
308           	1.919793e-02	1.481131e+01	2.568551e-02	3.204069e-02	-6.355173e-03
309           	1.931166e-02	1.479668e+01	2.584462e-02	3.223397e-02	-6.389348e-03
310           	1.942551e-02	1.478210e+01	2.600367e-02	3.242734e-02	-6.423675e-03
311           	1.953970e-02	1.476765e+01	2.616355e-02	3.262148e-02	-6.457929e-03
312           	1.965400e-02	1.475323e+01	2.632326e-02	3.281563e-02	-6.492374e-03
313           	1.978835e-02	1.473886e+01	2.651472e-02	3.304571e-02	-6.530991e-03
314           	1.990985e-02	1.472459e+01	2.668588e-02	3.325280e-02	-6.566912e-03
315           	2.002657e-02	1.471045e+01	2.684986e-02	3.345150e-02	-6.601645e-03
316           	2.014215e-02	1.469635e+01	2.701156e-02	3.364792e-02	-6.636367e-03
317           	2.025816e-02	1.468238e+01	2.717438e-02	3.384535e-02	-6.670969e-03
318           	2.037435e-02	1.466844e+01	2.733706e-02	3.404288e-02	-6.705817e-03
319           	2.049093e-02	1.465462e+01	2.750087e-02	3.424136e-02	-6.740495e-03
320           	2.060752e-02	1.464084e+01	2.766415e-02	3.443959e-02	-6.775442e-03
321           	2.072448e-02	1.462717e+01	2.782859e-02	3.463878e-02	-6.810181e-03
322           	2.084144e-02	1.461354e+01	2.799246e-02	3.483767e-02	-6.845212e-03
323           	2.095878e-02	1.460002e+01	2.815744e-02	3.503750e-02	-6.880063e-03
324           	2.107616e-02	1.458654e+01	2.832203e-02	3.523718e-02	-6.915144e-03
325           	2.119388e-02	1.457317e+01	2.848748e-02	3.543762e-02	-6.950138e-03
326           	2.131169e-02	1.455983e+01	2.865284e-02	3.563811e-02	-6.985266e-03
327           	2.142982e-02	1.454661e+01	2.881899e-02	3.583931e-02	-7.020325e-03
328           	2.154802e-02	1.453341e+01	2.898493e-02	3.604048e-02	-7.055553e-03
329           	2.166655e-02	1.452033e+01	2.915175e-02	3.624243e-02	-7.090679e-03
330           	2.178514e-02	1.450728e+01	2.931828e-02	3.644428e-02	-7.126000e-03
331           	2.190408e-02	1.449434e+01	2.948577e-02	3.664696e-02	-7.161194e-03
332           	2.202305e-02	1.448143e+01	2.965289e-02	3.684950e-02	-7.196609e-03
333           	2.214242e-02	1.446862e+01	2.982116e-02	3.705300e-02	-7.231840e-03
334           	2.226177e-02	1.445585e+01	2.998881e-02	3.725618e-02	-7.267362e-03
335           	2.238150e-02	1.444318e+01	3.015761e-02	3.746031e-02	-7.302698e-03
336           	2.250124e-02	1.443054e+01	3.032595e-02	3.766422e-02	-7.338265e-03
337           	2.262133e-02	1.441800e+01	3.049525e-02	3.786895e-02	-7.373706e-03
338           	2.274146e-02	1.440549e+01	3.066429e-02	3.807360e-02	-7.409309e-03
339           	2.286189e-02	1.439309e+01	3.083401e-02	3.827890e-02	-7.444881e-03
340           	2.298242e-02	1.438071e+01	3.100383e-02	3.848433e-02	-7.480503e-03
341           	2.310320e-02	1.436843e+01	3.117403e-02	3.869021e-02	-7.516183e-03
342           	2.322411e-02	1.435618e+01	3.134455e-02	3.889638e-02	-7.551837e-03
343           	2.334524e-02	1.434403e+01	3.151529e-02	3.910289e-02	-7.587597e-03
344           	2.346652e-02	1.433191e+01	3.168640e-02	3.930973e-02	-7.623321e-03
345           	2.358803e-02	1.431989e+01	3.185774e-02	3.951690e-02	-7.659155e-03
346           	2.370968e-02	1.430788e+01	3.202946e-02	3.972441e-02	-7.694949e-03
347           	2.383154e-02	1.429598e+01	3.220136e-02	3.993222e-02	-7.730865e-03
348           	2.395356e-02	1.428410e+01	3.237363e-02	4.014037e-02	-7.766739e-03
349           	2.407578e-02	1.427233e+01	3.254611e-02	4.034883e-02	-7.802723e-03
350           	2.419814e-02	1.426057e+01	3.271895e-02	4.055762e-02	-7.838663e-03
351           	2.432070e-02	1.424891e+01	3.289198e-02	4.076669e-02	-7.874714e-03
352           	2.444340e-02	1.423727e+01	3.306536e-02	4.097608e-02	-7.910722e-03
353           	2.456631e-02	1.422572e+01	3.323895e-02	4.118578e-02	-7.946831e-03
354           	2.468934e-02	1.421420e+01	3.341287e-02	4.139578e-02	-7.982902e-03
355           	2.481258e-02	1.420277e+01	3.358701e-02	4.160609e-02	-8.019074e-03
356           	2.493595e-02	1.419136e+01	3.376149e-02	4.181670e-02	-8.055202e-03
357           	2.505952e-02	1.418005e+01	3.393618e-02	4.202761e-02	-8.091427e-03
358           	2.518321e-02	1.416875e+01	3.411120e-02	4.223880e-02	-8.127608e-03
359           	2.530709e-02	1.415755e+01	3.428639e-02	4.245028e-02	-8.163890e-03
360           	2.543109e-02	1.414637e+01	3.446194e-02	4.266206e-02	-8.200125e-03
361           	2.555529e-02	1.413528e+01	3.463762e-02	4.287410e-02	-8.236475e-03
362           	2.567961e-02	1.412420e+01	3.481370e-02	4.308646e-02	-8.272765e-03
363           	2.580411e-02	1.411322e+01	3.498985e-02	4.329903e-02	-8.309181e-03
364           	2.592873e-02	1.410225e+01	3.516644e-02	4.351195e-02	-8.345513e-03
365           	2.605351e-02	1.409138e+01	3.534305e-02	4.372504e-02	-8.381982e-03
366           	2.617842e-02	1.408052e+01	3.552013e-02	4.393849e-02	-8.418357e-03
367           	2.630349e-02	1.406975e+01	3.569722e-02	4.415210e-02	-8.454879e-03
368           	2.642869e-02	1.405899e+01	3.587477e-02	4.436607e-02	-8.491305e-03
369           	2.655403e-02	1.404833e+01	3.605232e-02	4.458019e-02	-8.527874e-03
370           	2.667951e-02	1.403767e+01	3.623034e-02	4.479468e-02	-8.564344e-03
371           	2.680514e-02	1.402711e+01	3.640835e-02	4.500931e-02	-8.600960e-03
372           	2.693089e-02	1.401656e+01	3.658683e-02	4.522431e-02	-8.637479e-03
373           	2.705679e-02	1.400610e+01	3.676530e-02	4.543944e-02	-8.674141e-03
374           	2.718283e-02	1.399565e+01	3.694423e-02	4.565494e-02	-8.710711e-03
375           	2.730901e-02	1.398529e+01	3.712317e-02	4.587059e-02	-8.747426e-03
376           	2.743532e-02	1.397494e+01	3.730255e-02	4.608659e-02	-8.784046e-03
377           	2.756177e-02	1.396468e+01	3.748192e-02	4.630273e-02	-8.820808e-03
378           	2.768834e-02	1.395442e+01	3.766174e-02	4.651921e-02	-8.857473e-03
379           	2.781505e-02	1.394426e+01	3.784155e-02	4.673583e-02	-8.894278e-03
380           	2.794188e-02	1.393410e+01	3.802179e-02	4.695277e-02	-8.930987e-03
381           	2.806884e-02	1.392403e+01	3.820201e-02	4.716984e-02	-8.967834e-03
382           	2.819591e-02	1.391397e+01	3.838265e-02	4.738724e-02	-9.004588e-03
383           	2.832312e-02	1.390400e+01	3.856330e-02	4.760477e-02	-9.041475e-03
384           	2.845044e-02	1.389403e+01	3.874435e-02	4.782262e-02	-9.078269e-03
385           	2.857789e-02	1.388415e+01	3.892540e-02	4.804059e-02	-9.115193e-03
386           	2.870545e-02	1.387427e+01	3.910684e-02	4.825886e-02	-9.152029e-03
387           	2.883312e-02	1.386448e+01	3.928825e-02	4.847725e-02	-9.188997e-03
388           	2.896091e-02	1.385470e+01	3.947009e-02	4.869595e-02	-9.225865e-03
389           	2.908881e-02	1.384500e+01	3.965189e-02	4.891476e-02	-9.262869e-03
390           	2.921682e-02	1.383530e+01	3.983410e-02	4.913387e-02	-9.299769e-03
391           	2.934493e-02	1.382569e+01	4.001625e-02	4.935306e-02	-9.336805e-03
392           	2.947315e-02	1.381609e+01	4.019883e-02	4.957256e-02	-9.373730e-03
393           	2.960147e-02	1.380657e+01	4.038135e-02	4.979214e-02	-9.410795e-03
394           	2.972990e-02	1.379705e+01	4.056430e-02	5.001205e-02	-9.447750e-03
395           	2.985844e-02	1.378761e+01	4.074718e-02	5.023203e-02	-9.484850e-03
396           	2.998708e-02	1.377818e+01	4.093049e-02	5.045232e-02	-9.521836e-03
397           	3.011581e-02	1.376883e+01	4.111371e-02	5.067267e-02	-9.558961e-03
398           	3.024464e-02	1.375949e+01	4.129733e-02	5.089330e-02	-9.595970e-03
399           	3.037355e-02	1.375023e+01	4.148086e-02	5.111398e-02	-9.633120e-03
400           	3.050256e-02	1.374097e+01	4.166480e-02	5.133496e-02	-9.670156e-03
401           	3.063166e-02	1.373178e+01	4.184865e-02	5.155598e-02	-9.707335e-03
402           	3.076086e-02	1.372261e+01	4.203292e-02	5.177732e-02	-9.744397e-03
403           	3.089014e-02	1.371351e+01	4.221709e-02	5.199869e-02	-9.781599e-03
404           	3.101952e-02	1.370441e+01	4.240168e-02	5.222036e-02	-9.818682e-03
405           	3.114897e-02	1.369540e+01	4.258614e-02	5.244204e-02	-9.855902e-03
406           	3.127851e-02	1.368638e+01	4.277103e-02	5.266403e-02	-9.892995e-03
407           	3.140814e-02	1.367745e+01	4.295582e-02	5.288604e-02	-9.930226e-03
408           	3.153785e-02	1.366852e+01	4.314103e-02	5.310836e-02	-9.967337e-03
409           	3.166765e-02	1.365966e+01	4.332611e-02	5.333070e-02	-1.000459e-02
410           	3.179754e-02	1.365080e+01	4.351161e-02	5.355334e-02	-1.004173e-02
411           	3.192750e-02	1.364203e+01	4.369698e-02	5.377599e-02	-1.007901e-02
412           	3.205754e-02	1.363325e+01	4.388276e-02	5.399892e-02	-1.011616e-02
413           	3.218766e-02	1.362455e+01	4.406839e-02	5.422186e-02	-1.015346e-02
414           	3.231785e-02	1.361585e+01	4.425444e-02	5.444507e-02	-1.019063e-02
415           	3.244811e-02	1.360723e+01	4.444034e-02	5.466828e-02	-1.022794e-02
416           	3.257844e-02	1.359861e+01	4.462664e-02	5.489176e-02	-1.026512e-02
417           	3.270883e-02	1.359006e+01	4.481278e-02	5.511522e-02	-1.030244e-02
418           	3.283930e-02	1.358151e+01	4.499935e-02	5.533898e-02	-1.033963e-02
419           	3.296983e-02	1.357304e+01	4.518572e-02	5.556269e-02	-1.037697e-02
420           	3.310044e-02	1.356457e+01	4.537254e-02	5.578671e-02	-1.041417e-02
421           	3.323109e-02	1.355617e+01	4.555915e-02	5.601067e-02	-1.045152e-02
422           	3.336182e-02	1.354777e+01	4.574619e-02	5.623491e-02	-1.048872e-02
423           	3.349258e-02	1.353944e+01	4.593301e-02	5.645909e-02	-1.052608e-02
424           	3.362343e-02	1.353112e+01	4.612028e-02	5.668357e-02	-1.056329e-02
425           	3.375432e-02	1.352286e+01	4.630734e-02	5.690799e-02	-1.060065e-02
426           	3.388528e-02	1.351461e+01	4.649482e-02	5.713269e-02	-1.063787e-02
427           	3.401629e-02	1.350643e+01	4.668209e-02	5.735733e-02	-1.067524e-02
428           	3.414736e-02	1.349824e+01	4.686979e-02	5.758225e-02	-1.071246e-02
429           	3.427847e-02	1.349013e+01	4.705725e-02	5.780709e-02	-1.074984e-02
430           	3.440964e-02	1.348202e+01	4.724514e-02	5.803221e-02	-1.078707e-02
431           	3.454084e-02	1.347398e+01	4.743279e-02	5.825724e-02	-1.082445e-02
432           	3.467211e-02	1.346593e+01	4.762087e-02	5.848254e-02	-1.086167e-02
433           	3.480341e-02	1.345796e+01	4.780870e-02	5.870775e-02	-1.089906e-02
434           	3.493476e-02	1.344998e+01	4.799693e-02	5.893322e-02	-1.093629e-02
435           	3.506615e-02	1.344208e+01	4.818493e-02	5.915861e-02	-1.097368e-02
436           	3.519758e-02	1.343417e+01	4.837333e-02	5.938425e-02	-1.101091e-02
437           	3.532904e-02	1.342633e+01	4.856149e-02	5.960979e-02	-1.104829e-02
438           	3.546055e-02	1.341849e+01	4.875006e-02	5.983558e-02	-1.108552e-02
439           	3.559208e-02	1.341072e+01	4.893836e-02	6.006126e-02	-1.112289e-02
440           	3.572366e-02	1.340295e+01	4.912709e-02	6.028721e-02	-1.116012e-02
441           	3.585527e-02	1.339524e+01	4.931556e-02	6.051305e-02	-1.119749e-02
442           	3.598693e-02	1.338753e+01	4.950445e-02	6.073915e-02	-1.123471e-02
443           	3.611860e-02	1.337989e+01	4.969307e-02	6.096514e-02	-1.127207e-02
444           	3.625032e-02	1.337225e+01	4.988210e-02	6.119137e-02	-1.130927e-02
445           	3.638205e-02	1.336467e+01	5.007084e-02	6.141747e-02	-1.134663e-02
446           	3.651382e-02	1.335709e+01	5.026000e-02	6.164382e-02	-1.138383e-02
447           	3.664561e-02	1.334958e+01	5.044886e-02	6.187004e-02	-1.142118e-02
448           	3.677743e-02	1.334207e+01	5.063814e-02	6.209650e-02	-1.145837e-02
449           	3.690927e-02	1.333462e+01	5.082711e-02	6.232282e-02	-1.149571e-02
450           	3.704113e-02	1.332716e+01	5.101649e-02	6.254938e-02	-1.153289e-02
451           	3.717300e-02	1.331977e+01	5.120557e-02	6.277579e-02	-1.157022e-02
452           	3.730492e-02	1.331238e+01	5.139506e-02	6.300245e-02	-1.160739e-02
453           	3.743684e-02	1.330506e+01	5.158425e-02	6.322897e-02	-1.164472e-02
454           	3.756881e-02	1.329773e+01	5.177385e-02	6.345573e-02	-1.168188e-02
455           	3.770077e-02	1.329046e+01	5.196314e-02	6.368234e-02	-1.171920e-02
456           	3.783276e-02	1.328319e+01	5.215283e-02	6.390917e-02	-1.175634e-02
457           	3.796473e-02	1.327599e+01	5.234219e-02	6.413583e-02	-1.179364e-02
458           	3.809674e-02	1.326878e+01	5.253194e-02	6.436271e-02	-1.183077e-02
459           	3.822873e-02	1.326163e+01	5.272137e-02	6.458942e-02	-1.186805e-02
460           	3.836075e-02	1.325448e+01	5.291118e-02	6.481634e-02	-1.190516e-02
461           	3.849276e-02	1.324739e+01	5.310068e-02	6.504310e-02	-1.194242e-02
462           	3.862480e-02	1.324030e+01	5.329056e-02	6.527008e-02	-1.197952e-02
463           	3.875683e-02	1.323328e+01	5.348013e-02	6.549689e-02	-1.201677e-02
464           	3.888888e-02	1.322624e+01	5.367006e-02	6.572391e-02	-1.205385e-02
465           	3.902092e-02	1.321927e+01	5.385968e-02	6.595076e-02	-1.209108e-02
466           	3.915296e-02	1.321230e+01	5.404964e-02	6.617778e-02	-1.212814e-02
467           	3.928500e-02	1.320538e+01	5.423930e-02	6.640464e-02	-1.216535e-02