# vtk DataFile Version 2.0
track0
ASCII
DATASET POLYDATA
POINTS 19073 float
-1.001 -0.05 0.0011
-1.0001 -0.0500512 0.00110209
-0.999202 -0.0501029 0.00110424
-0.998303 -0.0501549 0.00110639
-0.997404 -0.0502074 0.00110855
-0.996577 -0.0502561 0.00111055
-0.995064 -0.0503458 0.00111421
-0.993551 -0.0504367 0.00111787
-0.992039 -0.0505289 0.00112155
-0.990526 -0.0506223 0.00112524
-0.989013 -0.0507169 0.00112894
-0.986517 -0.0508753 0.00113512
-0.984021 -0.0510374 0.0011414
-0.981525 -0.0512034 0.00114775
-0.97903 -0.0513732 0.00115416
-0.976532 -0.0515471 0.00116065
-0.974036 -0.051725 0.00116728
-0.97154 -0.0519074 0.00117416
-0.969044 -0.0520944 0.00118111
-0.966549 -0.0522858 0.00118811
-0.964051 -0.0524822 0.00119518
-0.961554 -0.0526831 0.0012025
-0.959058 -0.0528894 0.00121003
-0.956563 -0.053101 0.00121764
-0.954068 -0.0533178 0.00122531
-0.951568 -0.0535406 0.00123308
-0.949072 -0.053769 0.00124103
-0.946576 -0.0540041 0.00124933
-0.944081 -0.0542456 0.00125773
-0.941586 -0.0544936 0.00126621
-0.939086 -0.0547487 0.0012748
-0.936589 -0.0550102 0.00128374
-0.934094 -0.0552793 0.00129298
-0.931599 -0.0555559 0.00130233
-0.929104 -0.0558402 0.00131179
-0.926603 -0.0561339 0.00132139
-0.924106 -0.0564355 0.00133124
-0.92161 -0.0567467 0.00134161
-0.919116 -0.0570677 0.00135212
-0.916622 -0.0573984 0.00136276
-0.914118 -0.0577403 0.00137359
-0.911619 -0.0580915 0.00138493
-0.909122 -0.0584542 0.00139671
-0.906626 -0.0588283 0.00140866
-0.904132 -0.0592148 0.00142079
-0.901623 -0.0596169 0.00143318
-0.900374 -0.0598252 0.00143969
-0.899126 -0.0600364 0.00144622
-0.897878 -0.0602505 0.00145281
-0.896631 -0.060468 0.00145944
-0.895379 -0.0606901 0.00146617
-0.894131 -0.0609153 0.00147302
-0.892883 -0.0611443 0.00148006
-0.891635 -0.0613772 0.00148718
-0.890389 -0.0616141 0.00149435
-0.889136 -0.0618562 0.00150165
-0.888071 -0.0620654 0.001508
-0.887007 -0.0622778 0.00151445
-0.885943 -0.0624932 0.00152102
-0.88488 -0.0627117 0.00152764
-0.883966 -0.0629022 0.00153339
-0.883751 -0.0629476 0.00153475
-0.883536 -0.0629931 0.00153611
-0.883322 -0.0630388 0.00153748
-0.883107 -0.0630845 0.00153884
-0.882892 -0.0631305 0.00154021
-0.881643 -0.0633984 0.0015482
-0.880395 -0.0636709 0.00155629
-0.879147 -0.0639481 0.00156446
-0.877901 -0.0642301 0.00157273
-0.876646 -0.0645192 0.00158121
-0.875396 -0.0648119 0.00158975
-0.874148 -0.0651099 0.00159854
-0.872901 -0.065413 0.00160745
-0.871655 -0.0657213 0.00161646
-0.870398 -0.066038 0.0016257
-0.869148 -0.0663585 0.00163513
-0.867899 -0.0666847 0.00164473
-0.866651 -0.0670167 0.00165444
-0.865406 -0.0673543 0.00166426
-0.864146 -0.0677019 0.00167432
-0.863048 -0.0680101 0.00168321
-0.861952 -0.0683233 0.00169233
-0.860857 -0.0686411 0.00170152
-0.859764 -0.0689636 0.00171075
-0.858832 -0.0692428 0.00171866
-0.858644 -0.0692999 0.00172029
-0.858456 -0.0693572 0.00172192
-0.858268 -0.0694146 0.00172356
-0.85808 -0.0694722 0.00172521
-0.857892 -0.06953 0.00172687
-0.85664 -0.0699154 0.00173792
-0.85539 -0.0703075 0.00174926
-0.854143 -0.0707063 0.00176075
-0.852897 -0.0711118 0.00177232
-0.851633 -0.071531 0.00178425
-0.850381 -0.0719531 0.00179638
-0.849132 -0.0723827 0.0018087
-0.847885 -0.0728195 0.00182118
-0.84664 -0.0732634 0.00183381
-0.845373 -0.0737234 0.00184684
-0.844376 -0.0740915 0.00185723
-0.843381 -0.0744647 0.00186784
-0.842387 -0.0748425 0.00187857
-0.841395 -0.075225 0.00188935
-0.840528 -0.0755641 0.00189883
-0.840244 -0.0756764 0.00190196
-0.839961 -0.075789 0.00190512
-0.839678 -0.0759021 0.00190829
-0.839394 -0.0760155 0.00191148
-0.83911 -0.07613 0.0019147
-0.837857 -0.0766357 0.00192891
-0.836607 -0.0771493 0.0019434
-0.83536 -0.0776707 0.0019581
-0.834117 -0.0781998 0.00197292
-0.832844 -0.07875 0.00198839
-0.831589 -0.0793011 0.00200402
-0.830337 -0.0798605 0.00201984
-0.82909 -0.080428 0.00203584
-0.827845 -0.0810026 0.00205199
-0.826568 -0.0816013 0.00206877
-0.826475 -0.0816458 0.00207001
-0.826381 -0.0816904 0.00207126
-0.826288 -0.081735 0.0020725
-0.826194 -0.0817797 0.00207375
-0.826102 -0.081824 0.00207499
-0.824933 -0.0823838 0.00209061
-0.823767 -0.0829501 0.00210638
-0.822604 -0.0835231 0.0021223
-0.821445 -0.0841026 0.00213837
-0.820256 -0.0847043 0.00215498
-0.818991 -0.085352 0.00217278
-0.81773 -0.0860076 0.00219097
-0.816473 -0.0866707 0.0022095
-0.815219 -0.0873401 0.00222809
-0.813929 -0.0880368 0.00224741
-0.813864 -0.0880727 0.00224841
-0.813798 -0.0881086 0.0022494
-0.813733 -0.0881446 0.0022504
-0.813667 -0.0881805 0.00225139
-0.813602 -0.0882163 0.00225239
-0.812406 -0.0888721 0.00227056
-0.811213 -0.0895337 0.00228888
-0.810024 -0.0902009 0.00230734
-0.808838 -0.0908739 0.0023259
-0.807623 -0.091569 0.00234518
-0.806613 -0.0921518 0.00236147
-0.805605 -0.0927385 0.00237782
-0.804599 -0.0933288 0.00239415
-0.803595 -0.0939216 0.00241053
-0.802648 -0.0944831 0.00242603
-0.80238 -0.094643 0.00243044
-0.802112 -0.0948031 0.00243485
-0.801844 -0.0949634 0.00243926
-0.801577 -0.095124 0.00244368
-0.801308 -0.0952855 0.00244814
-0.800043 -0.0960452 0.00246914
-0.798781 -0.0968088 0.00249019
-0.797521 -0.097576 0.00251129
-0.796263 -0.0983462 0.00253255
-0.794986 -0.0991311 0.0025541
-0.794451 -0.0994609 0.00256312
-0.793916 -0.0997913 0.00257218
-0.793382 -0.100122 0.00258128
-0.792848 -0.100453 0.0025904
-0.792321 -0.10078 0.0025994
-0.791591 -0.101234 0.00261191
-0.790861 -0.101688 0.00262444
-0.790132 -0.102142 0.00263695
-0.789403 -0.102598 0.00264944
-0.78867 -0.103055 0.00266191
-0.787405 -0.103846 0.00268333
-0.786141 -0.104638 0.00270489
-0.784877 -0.105432 0.00272665
-0.783613 -0.106225 0.00274846
-0.782344 -0.10702 0.00277027
-0.782326 -0.107031 0.00277057
-0.782309 -0.107042 0.00277087
-0.782291 -0.107053 0.00277117
-0.782274 -0.107063 0.00277147
-0.782256 -0.107074 0.00277177
-0.781005 -0.107856 0.00279316
-0.779753 -0.108637 0.00281445
-0.778501 -0.109417 0.00283565
-0.777248 -0.110197 0.00285697
-0.776 -0.110968 0.00287821
-0.775216 -0.11145 0.00289152
-0.774432 -0.111932 0.00290475
-0.773647 -0.112412 0.00291788
-0.772861 -0.112892 0.00293088
-0.77206 -0.113378 0.00294399
-0.771586 -0.113665 0.00295173
-0.771112 -0.113951 0.00295948
-0.770637 -0.114237 0.00296726
-0.770163 -0.114522 0.00297506
-0.76969 -0.114806 0.00298283
-0.768427 -0.115561 0.00300355
-0.767162 -0.116312 0.00302415
-0.765896 -0.117061 0.00304463
-0.764626 -0.117805 0.00306499
-0.763375 -0.118531 0.00308482
-0.762985 -0.118755 0.00309093
-0.762595 -0.118978 0.00309703
-0.762204 -0.119201 0.00310314
-0.761813 -0.119424 0.00310926
-0.761414 -0.11965 0.00311551
-0.760545 -0.120142 0.00312918
-0.759674 -0.120632 0.00314282
-0.758801 -0.121119 0.00315633
-0.757928 -0.121604 0.00316963
-0.757066 -0.122078 0.00318258
-0.755799 -0.122769 0.00320141
-0.75453 -0.123455 0.00322013
-0.753257 -0.124136 0.00323881
-0.751981 -0.12481 0.00325739
-0.750732 -0.12546 0.00327526
-0.750537 -0.125561 0.00327802
-0.750341 -0.125661 0.00328078
-0.750145 -0.125762 0.00328353
-0.749949 -0.125862 0.00328627
-0.749751 -0.125963 0.00328903
-0.748684 -0.126505 0.00330378
-0.747615 -0.127043 0.00331833
-0.746543 -0.127576 0.00333268
-0.74547 -0.128104 0.0033471
-0.744417 -0.128615 0.00336116
-0.743152 -0.129221 0.00337788
-0.741884 -0.129821 0.00339442
-0.740613 -0.130413 0.00341076
-0.739338 -0.130998 0.00342673
-0.738092 -0.13156 0.00344222
-0.737782 -0.131698 0.00344602
-0.737472 -0.131835 0.00344981
-0.737162 -0.131972 0.0034536
-0.736851 -0.132108 0.00345739
-0.736531 -0.132248 0.00346132
-0.735585 -0.132659 0.00347292
-0.734638 -0.133065 0.0034845
-0.733689 -0.133468 0.00349589
-0.732738 -0.133866 0.00350699
-0.731803 -0.134253 0.00351769
-0.730542 -0.134767 0.00353197
-0.729278 -0.135273 0.00354608
-0.728011 -0.135772 0.00356002
-0.72674 -0.136264 0.00357365
-0.725496 -0.136735 0.00358675
-0.724525 -0.137096 0.0035968
-0.723552 -0.137452 0.00360679
-0.722577 -0.137804 0.00361657
-0.7216 -0.138151 0.00362607
-0.72049 -0.138539 0.00363661
-0.720217 -0.138633 0.00363919
-0.719943 -0.138726 0.00364178
-0.71967 -0.13882 0.00364438
-0.719396 -0.138912 0.00364698
-0.719124 -0.139004 0.00364957
-0.717866 -0.139427 0.00366149
-0.716605 -0.139842 0.00367332
-0.715342 -0.140249 0.00368515
-0.714076 -0.140648 0.00369656
-0.712832 -0.141032 0.00370746
-0.711572 -0.141412 0.00371837
-0.710309 -0.141784 0.00372911
-0.709045 -0.142149 0.00373966
-0.707778 -0.142506 0.00374989
-0.70653 -0.14285 0.00375975
-0.705267 -0.143189 0.00376951
-0.704002 -0.143522 0.00377922
-0.702735 -0.143847 0.00378865
-0.701466 -0.144164 0.00379769
-0.700214 -0.14447 0.00380661
-0.69966 -0.144602 0.00381052
-0.699105 -0.144732 0.0038144
-0.69855 -0.144862 0.00381829
-0.697995 -0.14499 0.0038222
-0.697374 -0.145131 0.00382659
-0.696678 -0.145287 0.00383147
-0.695982 -0.145442 0.00383624
-0.695285 -0.145594 0.0038409
-0.694587 -0.145744 0.00384545
-0.693894 -0.145891 0.00384986
-0.692634 -0.146155 0.0038578
-0.691372 -0.146412 0.00386553
-0.690108 -0.146662 0.00387299
-0.688844 -0.146905 0.00388016
-0.687591 -0.14714 0.00388724
-0.686337 -0.147369 0.0038941
-0.685081 -0.147591 0.00390091
-0.683825 -0.147807 0.00390765
-0.682567 -0.148018 0.00391407
-0.68132 -0.148221 0.00392041
-0.680059 -0.14842 0.00392678
-0.678797 -0.148614 0.00393297
-0.677535 -0.148802 0.00393896
-0.676272 -0.148985 0.00394473
-0.675016 -0.149162 0.00395027
-0.673759 -0.149334 0.00395564
-0.672501 -0.149501 0.00396101
-0.671243 -0.149664 0.00396636
-0.669984 -0.149822 0.00397149
-0.668731 -0.149975 0.00397656
-0.66748 -0.150123 0.00398162
-0.666228 -0.150268 0.0039865
-0.664976 -0.150408 0.0039913
-0.663723 -0.150545 0.00399594
-0.662475 -0.150677 0.00400039
-0.661226 -0.150806 0.0040047
-0.659977 -0.150932 0.00400902
-0.658727 -0.151055 0.00401319
-0.657477 -0.151174 0.00401719
-0.65623 -0.15129 0.00402118
-0.654982 -0.151403 0.00402519
-0.653733 -0.151513 0.00402913
-0.652483 -0.151621 0.00403308
-0.651234 -0.151725 0.00403692
-0.649986 -0.151827 0.00404062
-0.64966 -0.151853 0.00404156
-0.649334 -0.151879 0.0040425
[...]
POINT_DATA 19073
 FIELD attributes 2
p 1 19073 float
1.10732e+06 1.10732e+06 1.10733e+06 1.10733e+06 1.10733e+06 1.10733e+06 1.10734e+06 1.10734e+06 1.10734e+06 1.10735e+06 1.10735e+06 1.10736e+06 1.10737e+06 1.10737e+06 1.10738e+06 1.10739e+06 1.10739e+06 1.1074e+06 1.10741e+06 1.10742e+06 1.10743e+06 1.10743e+06 1.10744e+06 1.10745e+06 1.10746e+06 1.10747e+06 1.10748e+06 1.10749e+06 1.1075e+06 1.10751e+06 1.10751e+06 1.10753e+06 1.10754e+06 1.10755e+06 1.10756e+06 1.10757e+06 1.10758e+06 1.10759e+06 1.1076e+06 1.10761e+06 1.10762e+06 1.10764e+06 1.10765e+06 1.10766e+06 1.10768e+06 1.1077e+06 1.10768e+06 1.10769e+06 1.1077e+06 1.10771e+06 1.10774e+06 1.10774e+06 1.10775e+06 1.10776e+06 1.10777e+06 1.10778e+06 1.10779e+06 1.1078e+06 1.10781e+06 1.10782e+06 1.10782e+06 1.10782e+06 1.10783e+06 1.10783e+06 1.10783e+06 1.10783e+06 1.10784e+06 1.10785e+06 1.10786e+06 1.10787e+06 1.10788e+06 1.10789e+06 1.1079e+06 1.10791e+06 1.10792e+06 1.10793e+06 1.10794e+06 1.10796e+06 1.10797e+06 1.10798e+06 1.10799e+06 1.108e+06 1.10801e+06 1.10802e+06 1.10803e+06 1.10803e+06 1.10804e+06 1.10804e+06 1.10804e+06 1.10804e+06 1.10804e+06 1.10805e+06 1.10807e+06 1.10808e+06 1.10809e+06 1.1081e+06 1.10811e+06 1.10812e+06 1.10813e+06 1.10814e+06 1.10816e+06 1.10816e+06 1.10817e+06 1.10818e+06 1.10819e+06 1.1082e+06 1.1082e+06 1.1082e+06 1.10821e+06 1.10821e+06 1.10821e+06 1.10822e+06 1.10823e+06 1.10824e+06 1.10826e+06 1.10827e+06 1.10828e+06 1.10829e+06 1.1083e+06 1.10831e+06 1.10832e+06 1.10832e+06 1.10832e+06 1.10832e+06 1.10832e+06 1.10832e+06 1.10833e+06 1.10834e+06 1.10835e+06 1.10836e+06 1.10837e+06 1.10838e+06 1.10839e+06 1.1084e+06 1.1084e+06 1.10841e+06 1.10841e+06 1.10841e+06 1.10841e+06 1.10841e+06 1.10841e+06 1.10842e+06 1.10842e+06 1.10843e+06 1.10844e+06 1.10844e+06 1.10845e+06 1.10845e+06 1.10846e+06 1.10847e+06 1.10847e+06 1.10847e+06 1.10848e+06 1.10848e+06 1.10848e+06 1.10849e+06 1.1085e+06 1.1085e+06 1.10851e+06 1.10852e+06 1.10853e+06 1.10853e+06 1.10853e+06 1.10853e+06 1.10853e+06 1.10853e+06 1.10852e+06 1.10851e+06 1.10851e+06 1.1085e+06 1.10849e+06 1.10849e+06 1.10849e+06 1.10849e+06 1.10848e+06 1.10848e+06 1.10848e+06 1.10848e+06 1.10848e+06 1.10848e+06 1.10848e+06 1.10847e+06 1.10847e+06 1.10846e+06 1.10846e+06 1.10845e+06 1.10844e+06 1.10844e+06 1.10843e+06 1.10843e+06 1.10842e+06 1.10842e+06 1.10842e+06 1.10841e+06 1.10841e+06 1.10841e+06 1.1084e+06 1.10839e+06 1.10837e+06 1.10836e+06 1.10835e+06 1.10835e+06 1.10834e+06 1.10834e+06 1.10833e+06 1.10833e+06 1.10832e+06 1.10831e+06 1.1083e+06 1.10829e+06 1.10828e+06 1.10827e+06 1.10825e+06 1.10823e+06 1.10822e+06 1.1082e+06 1.1082e+06 1.10819e+06 1.10819e+06 1.10819e+06 1.10818e+06 1.10817e+06 1.10815e+06 1.10814e+06 1.10812e+06 1.10811e+06 1.10809e+06 1.10807e+06 1.10805e+06 1.10803e+06 1.10801e+06 1.108e+06 1.108e+06 1.10799e+06 1.10799e+06 1.10798e+06 1.10797e+06 1.10795e+06 1.10793e+06 1.10792e+06 1.1079e+06 1.10788e+06 1.10786e+06 1.10784e+06 1.10782e+06 1.1078e+06 1.10778e+06 1.10776e+06 1.10774e+06 1.10773e+06 1.10771e+06 1.1077e+06 1.1077e+06 1.10769e+06 1.10769e+06 1.10768e+06 1.10766e+06 1.10764e+06 1.10761e+06 1.10759e+06 1.10757e+06 1.10755e+06 1.10753e+06 1.10751e+06 1.10748e+06 1.10746e+06 1.10744e+06 1.10742e+06 1.1074e+06 1.10739e+06 1.10737e+06 1.10736e+06 1.10735e+06 1.10734e+06 1.10733e+06 1.10732e+06 1.10731e+06 1.1073e+06 1.10729e+06 1.10728e+06 1.10727e+06 1.10725e+06 1.10724e+06 1.10722e+06 1.1072e+06 1.10718e+06 1.10717e+06 1.10715e+06 1.10714e+06 1.10712e+06 1.10711e+06 1.1071e+06 1.10708e+06 1.10707e+06 1.10706e+06 1.10704e+06 1.10703e+06 1.10702e+06 1.10701e+06 1.107e+06 1.10699e+06 1.10699e+06 1.10698e+06 1.10697e+06 1.10696e+06 1.10695e+06 1.10695e+06 1.10694e+06 1.10694e+06 1.10693e+06 1.10692e+06 1.10692e+06 1.10692e+06 1.10691e+06 1.10691e+06 1.1069e+06 1.1069e+06 1.1069e+06 1.1069e+06 1.1069e+06 1.1069e+06 1.1069e+06 1.10689e+06 1.10689e+06 1.10689e+06 1.10689e+06 1.10688e+06 1.10688e+06 1.10688e+06 1.10687e+06 1.10687e+06 1.10687e+06 1.10687e+06 1.10687e+06 1.10686e+06 1.10686e+06 1.10686e+06 1.10686e+06 1.10686e+06 1.10686e+06 1.10685e+06 1.10685e+06 1.10685e+06 1.10685e+06 1.10685e+06 1.10685e+06 1.10685e+06 1.10685e+06 1.10685e+06 1.10685e+06 1.10685e+06 1.10685e+06 1.10684e+06 1.10684e+06 1.10684e+06 1.10684e+06 1.10684e+06 1.10684e+06 1.10684e+06 1.10684e+06 1.10684e+06 1.10684e+06 1.10684e+06 1.10684e+06 1.10684e+06 1.10684e+06 1.10684e+06 1.10684e+06 1.10684e+06 1.10684e+06 1.10684e+06 1.10684e+06 1.10684e+06 1.10684e+06 1.10684e+06 1.10684e+06 1.10684e+06 1.10684e+06 1.10684e+06 1.10684e+06 1.10684e+06 1.10684e+06 1.10684e+06 1.10684e+06 1.10684e+06 1.10684e+06 1.10684e+06 1.10684e+06 1.10684e+06 1.10684e+06 1.10684e+06 1.10684e+06 1.10684e+06 1.10684e+06 1.10684e+06 1.10684e+06 1.10684e+06 1.10684e+06 1.10684e+06 1.10684e+06 1.10684e+06 1.10684e+06 1.10684e+06 1.10684e+06 1.10684e+06 1.10684e+06 1.10684e+06 1.10684e+06 1.10684e+06 1.10684e+06 1.10684e+06 1.10684e+06 1.10684e+06 1.10684e+06 1.10684e+06 1.10684e+06 1.10684e+06 1.10684e+06 1.10684e+06 1.10684e+06 1.10684e+06 1.10684e+06 1.10684e+06 1.10684e+06 1.10684e+06 1.10684e+06 1.10684e+06 1.10684e+06 1.10684e+06 1.10684e+06 1.10684e+06 1.10684e+06 1.10684e+06 1.10684e+06 1.10684e+06 1.10684e+06 1.10684e+06 1.10684e+06 1.10684e+06 1.10684e+06 1.10685e+06 1.10685e+06 1.10685e+06 1.10685e+06 1.10685e+06 1.10685e+06 1.10685e+06 1.10685e+06 1.10685e+06 1.10685e+06 1.10685e+06 1.10685e+06 1.10685e+06 1.10685e+06 1.10685e+06 1.10685e+06 1.10685e+06 1.10685e+06 1.10685e+06 1.10685e+06 1.10685e+06 1.10685e+06 1.10685e+06 1.10685e+06 1.10685e+06 1.10685e+06 1.10685e+06 1.10685e+06 1.10685e+06 1.10685e+06 1.10685e+06 1.10685e+06 1.10685e+06 1.10685e+06 1.10685e+06 1.10685e+06 1.10685e+06 1.10685e+06 1.10685e+06 1.10685e+06 1.10685e+06 1.10685e+06 1.10685e+06 1.10685e+06 1.10685e+06 1.10685e+06 1.10685e+06 1.10685e+06 1.10685e+06 1.10685e+06 1.10685e+06 1.10685e+06 1.10685e+06 1.10685e+06 1.10685e+06 1.10685e+06 1.10685e+06 1.10685e+06 1.10685e+06 1.10685e+06 1.10685e+06 1.10685e+06 1.10685e+06 1.10685e+06 1.10685e+06 1.10685e+06 1.10685e+06 1.10685e+06 1.10685e+06 1.10685e+06 1.10685e+06 1.10685e+06 1.10685e+06 1.10685e+06 1.10685e+06 1.10685e+06 1.10685e+06 1.10685e+06 1.10685e+06 1.10685e+06 1.10685e+06 1.10685e+06 1.10685e+06 1.10685e+06 1.10685e+06 1.10685e+06 1.10685e+06 1.10685e+06 1.10685e+06 1.10685e+06 1.10685e+06 1.10685e+06 1.10685e+06 1.10685e+06 1.10685e+06 1.10685e+06 1.10685e+06 1.10686e+06 1.10686e+06 1.10686e+06 1.10686e+06 1.10686e+06 1.10686e+06 1.10686e+06 1.10686e+06 1.10686e+06 1.10686e+06 1.10686e+06 1.10686e+06 1.10686e+06 1.10686e+06 1.10686e+06 1.10686e+06 1.10686e+06 1.10686e+06 1.10686e+06 1.10686e+06 1.10686e+06 1.10686e+06 1.10686e+06 1.10686e+06 1.10686e+06 1.10686e+06 1.10686e+06 1.10686e+06 1.10686e+06 1.10686e+06 1.10686e+06 1.10686e+06 1.10686e+06 1.10686e+06 1.10686e+06 1.10686e+06 1.10686e+06 1.10686e+06 1.10686e+06 1.10686e+06 1.10686e+06 1.10686e+06 1.10686e+06 1.10686e+06 1.10686e+06 1.10686e+06 1.10686e+06 1.10686e+06 1.10686e+06 1.10686e+06 1.10686e+06 1.10686e+06 1.10686e+06 1.10686e+06 1.10686e+06 1.10686e+06 1.10686e+06 1.10686e+06 1.10686e+06 1.10686e+06 1.10686e+06 1.10686e+06 1.10686e+06 1.10686e+06 1.10686e+06 1.10686e+06 1.10686e+06 1.10686e+06 1.10686e+06 1.10686e+06 1.10686e+06 1.10686e+06 1.10686e+06 1.10686e+06 1.10686e+06 1.10686e+06 1.10686e+06 1.10686e+06 1.10686e+06 1.10686e+06 1.10686e+06 1.10686e+06 1.10686e+06 1.10686e+06 1.10686e+06 1.10686e+06 1.10686e+06 1.10686e+06 1.10686e+06 1.10686e+06 1.10686e+06 1.10686e+06 1.10686e+06 1.10686e+06 1.10686e+06 1.10686e+06 1.10686e+06 1.10686e+06 1.10686e+06 1.10686e+06 1.10686e+06 1.10686e+06 1.10686e+06 1.10686e+06 1.10686e+06 1.10686e+06 1.10686e+06 1.10686e+06 1.10686e+06 1.10686e+06 1.10686e+06 1.10686e+06 1.10686e+06 1.10686e+06 1.10686e+06 1.10686e+06 1.10686e+06 1.10686e+06 1.10686e+06 1.10686e+06 1.10686e+06 1.10686e+06 1.10686e+06 1.10686e+06 1.10686e+06 1.10686e+06 1.10686e+06 1.10686e+06 1.10686e+06 1.10686e+06 1.10686e+06 1.10686e+06 1.10686e+06 1.10686e+06 1.10686e+06 1.10686e+06 1.10686e+06 1.10686e+06 1.10686e+06 1.10686e+06 1.10686e+06 1.10686e+06 1.10686e+06 1.10686e+06 1.10686e+06 1.10686e+06 1.10686e+06 1.10686e+06 1.10686e+06 1.10686e+06 1.10686e+06 1.10686e+06 1.10686e+06 1.10686e+06 1.10686e+06 1.10686e+06 1.10686e+06 1.10686e+06 1.10686e+06 1.10686e+06 1.10686e+06 1.10686e+06 1.10686e+06 1.10686e+06 1.10686e+06 1.10686e+06 1.10686e+06 1.10686e+06 1.10686e+06 1.10686e+06 1.10686e+06 1.10686e+06 1.10686e+06 1.10686e+06 1.10686e+06 1.10686e+06 1.10686e+06 1.10686e+06 1.10686e+06 1.10686e+06 1.10686e+06 1.10686e+06 1.10686e+06 1.10686e+06 1.10686e+06 1.10686e+06 1.10686e+06 1.10686e+06 1.10686e+06 1.10686e+06 1.10686e+06 1.10686e+06 1.10686e+06 1.10686e+06 1.10686e+06 1.10686e+06 1.10686e+06 1.10686e+06 1.10686e+06 1.10686e+06 1.10686e+06 1.10686e+06 1.10686e+06 1.10686e+06 1.10686e+06 1.10686e+06 1.10686e+06 1.10686e+06 1.10686e+06 1.10686e+06 1.10686e+06 1.10686e+06 1.10686e+06 1.10686e+06 1.10686e+06 1.10686e+06 1.10686e+06 1.10686e+06 1.10686e+06 1.10686e+06 1.10686e+06 1.10686e+06 1.10686e+06 1.10686e+06 1.10686e+06 1.10686e+06 1.10686e+06 1.10686e+06 1.10686e+06 1.10686e+06 1.10686e+06 1.10686e+06 1.10686e+06 1.10686e+06 1.10686e+06 1.10686e+06 1.10686e+06 1.10686e+06 1.10686e+06 1.10686e+06 1.10686e+06 1.10686e+06 1.10686e+06 1.10686e+06 1.10686e+06 1.10686e+06 1.10686e+06 1.10686e+06 1.10686e+06 1.10686e+06 1.10686e+06 1.10686e+06 1.10686e+06 1.10686e+06 1.10686e+06 1.10686e+06 1.10686e+06 1.10686e+06 1.10686e+06 1.10686e+06 1.10686e+06 1.10686e+06 1.10686e+06 1.10686e+06 1.10686e+06 1.10686e+06 1.10686e+06 1.10686e+06 1.10686e+06 1.10686e+06 1.10686e+06 1.10686e+06 1.10686e+06 1.10686e+06 1.10686e+06 1.10686e+06 1.10686e+06 1.10686e+06 1.10686e+06 1.10686e+06 1.10686e+06 1.10686e+06 1.10686e+06 1.10686e+06 1.10686e+06 1.10686e+06 1.10686e+06 1.10686e+06 1.10686e+06 1.10687e+06 1.10687e+06 1.10687e+06 1.10687e+06 1.10687e+06 1.10687e+06 1.10687e+06 1.10687e+06 1.10687e+06 1.10687e+06 1.10687e+06 1.10687e+06 1.10687e+06 1.10687e+06 1.10687e+06 1.10687e+06 1.10687e+06 1.10687e+06 1.10687e+06 1.10687e+06 1.10687e+06 1.10687e+06 1.10687e+06 1.10687e+06 1.10687e+06 1.10687e+06 1.10687e+06 1.10687e+06 1.10687e+06 1.10687e+06 1.10687e+06 1.10687e+06 1.10687e+06 1.10687e+06 1.10687e+06 1.10687e+06 1.10687e+06 1.10687e+06 1.10687e+06 1.10687e+06 1.10687e+06 1.10687e+06 1.10687e+06 1.10687e+06 1.10687e+06 1.10687e+06 1.10687e+06 1.10687e+06 1.10687e+06 1.10687e+06 1.10687e+06 1.10687e+06 1.10687e+06 1.10687e+06 1.10687e+06 1.10687e+06 1.10687e+06 1.10687e+06 1.10687e+06 1.10687e+06 1.10687e+06 1.10687e+06 1.10687e+06 1.10687e+06 1.10687e+06 1.10687e+06 1.10687e+06 1.10687e+06 1.10687e+06 1.10687e+06 1.10687e+06 1.10687e+06 1.10687e+06 1.10687e+06 1.10687e+06 1.10687e+06 1.10687e+06 1.10687e+06 1.10687e+06 1.10687e+06 1.10687e+06 1.10687e+06 1.10687e+06 1.10687e+06 1.10687e+06 1.10687e+06 1.10687e+06 1.10687e+06 1.10687e+06 1.10687e+06 1.10687e+06 1.10687e+06 1.10687e+06 1.10687e+06 1.10687e+06 1.10687e+06 1.10687e+06 1.10687e+06 1.10687e+06 1.10687e+06 1.10687e+06 1.10687e+06 1.10687e+06 1.10687e+06 1.10687e+06 1.10687e+06 1.10687e+06 1.10687e+06 1.10687e+06 1.10687e+06 1.10687e+06 1.10687e+06 1.10687e+06 1.10687e+06 1.10687e+06 1.10687e+06 1.10687e+06 1.10687e+06 1.10687e+06 1.10687e+06 1.10687e+06 1.10687e+06 1.10687e+06 1.10687e+06 1.10687e+06 1.10687e+06 1.10687e+06 1.10687e+06 1.10687e+06 1.10688e+06 1.10688e+06 1.10688e+06 1.10688e+06 1.10688e+06 1.10688e+06 1.10688e+06 1.10688e+06 1.10688e+06 1.10688e+06 1.10688e+06 1.10688e+06 1.10688e+06 1.10688e+06 1.10688e+06 1.10688e+06 1.10688e+06 1.10688e+06 1.10688e+06 1.10688e+06 1.10688e+06 1.10688e+06 1.10688e+06 1.10688e+06 1.10688e+06 1.10688e+06 1.10688e+06 1.10688e+06 1.10688e+06 1.10688e+06 1.10689e+06 1.10689e+06 1.10689e+06 1.10689e+06 1.10689e+06 1.10689e+06 1.10689e+06 1.10689e+06 1.10689e+06 1.10689e+06 1.10689e+06 1.10689e+06 1.10689e+06 1.10689e+06 1.10689e+06 1.10689e+06 1.10689e+06 1.1069e+06 1.1069e+06 1.1069e+06 1.1069e+06 1.1069e+06 1.1069e+06 1.1069e+06 1.1069e+06 1.1069e+06 1.1069e+06 1.1069e+06 1.1069e+06 1.1069e+06 1.10691e+06 1.10691e+06 1.10691e+06 1.10691e+06 1.10691e+06 1.10691e+06 1.10691e+06 1.10691e+06 1.10691e+06 1.10691e+06 1.10691e+06 1.10692e+06 1.10692e+06 1.10692e+06 1.10692e+06 1.10692e+06 1.10692e+06 1.10692e+06 1.10692e+06 1.10692e+06 1.10692e+06 1.10692e+06 1.10692e+06 1.10692e+06 1.10693e+06 1.10693e+06 1.10693e+06 1.10693e+06 1.10693e+06 1.10693e+06 1.10693e+06 1.10694e+06 1.10694e+06 1.10694e+06 1.10694e+06 1.10694e+06 1.10694e+06 1.10695e+06 1.10695e+06 1.10695e+06 1.10695e+06 1.10695e+06 1.10695e+06 1.10696e+06 1.10696e+06 1.10696e+06 1.10696e+06 1.10696e+06 1.10697e+06 1.10697e+06 1.10697e+06 1.10697e+06 1.10698e+06 1.10698e+06 1.10698e+06 1.10698e+06 1.10698e+06 1.10699e+06 1.10699e+06 1.10699e+06 1.107e+06 1.107e+06 1.107e+06 1.107e+06 1.10701e+06 1.10701e+06 1.10701e+06 1.10702e+06 1.10702e+06 1.10702e+06 1.10703e+06 1.10703e+06 1.10703e+06 1.10704e+06 1.10704e+06 1.10705e+06 1.10705e+06 1.10705e+06 1.10706e+06 1.10706e+06 1.10707e+06 1.10707e+06 1.10708e+06 1.10708e+06 1.10709e+06 1.10709e+06 1.1071e+06 1.1071e+06 1.10711e+06 1.10711e+06 1.10712e+06 1.10712e+06 1.10713e+06 1.10714e+06 1.10714e+06 1.10715e+06 1.10716e+06 1.10716e+06 1.10717e+06 1.10718e+06 1.10719e+06 1.1072e+06 1.1072e+06 1.10721e+06 1.10722e+06 1.10723e+06 1.10724e+06 1.10725e+06 1.10726e+06 1.10727e+06 1.10728e+06 1.10729e+06 1.1073e+06 1.10731e+06 1.10732e+06 1.10734e+06 1.10735e+06 1.10736e+06 1.10738e+06 1.10739e+06 1.10741e+06 1.10742e+06 1.10744e+06 1.10745e+06 1.10746e+06 1.10747e+06 1.10748e+06 1.10748e+06 1.10748e+06 1.10749e+06 1.10749e+06 1.10751e+06 1.10752e+06 1.10754e+06 1.10755e+06 1.10756e+06 1.10758e+06 1.1076e+06 1.10761e+06 1.10763e+06 1.10765e+06 1.10765e+06 1.10766e+06 1.10766e+06 1.10766e+06 1.10767e+06 1.1077e+06 1.10773e+06 1.10776e+06 1.10779e+06 1.10781e+06 1.10785e+06 1.10788e+06 1.10792e+06 1.10795e+06 1.10798e+06 1.10802e+06 1.10806e+06 1.1081e+06 1.10813e+06 1.10816e+06 1.10821e+06 1.10827e+06 1.10831e+06 1.10836e+06 1.10839e+06 1.10846e+06 1.10852e+06 1.10858e+06 1.10862e+06 1.10866e+06 1.10867e+06 1.10867e+06 1.10867e+06 1.10867e+06 1.10867e+06 1.10874e+06 1.10881e+06 1.10888e+06 1.10895e+06 1.10898e+06 1.10908e+06 1.1091e+06 1.1091e+06 1.1091e+06 1.10909e+06 1.1091e+06 1.10911e+06 1.10912e+06 1.10911e+06 1.10908e+06 1.10898e+06 1.10888e+06 1.10891e+06 1.10908e+06 1.1094e+06 1.109e+06 1.10886e+06 1.10874e+06 1.10859e+06 1.10841e+06 1.10802e+06 1.10794e+06 1.10785e+06 1.10776e+06 1.10762e+06 1.10758e+06 1.10754e+06 1.1075e+06 1.10746e+06 1.10745e+06 1.10736e+06 1.10727e+06 1.10716e+06 1.10709e+06 1.10707e+06 1.10706e+06 1.10705e+06 1.10703e+06 1.10701e+06 1.10699e+06 1.10699e+06 1.10698e+06 1.10697e+06 1.10696e+06 1.10695e+06 1.10694e+06 1.10694e+06 1.10693e+06 1.10692e+06 1.10691e+06 1.10691e+06 1.10691e+06 1.1069e+06 1.1069e+06 1.10689e+06 1.10689e+06 1.10689e+06 1.10689e+06 1.10688e+06 1.10688e+06 1.10688e+06 1.10688e+06 1.10688e+06 1.10687e+06 1.10687e+06 1.10687e+06 1.10687e+06 1.10687e+06 1.10687e+06 1.10687e+06 1.10687e+06 1.10687e+06 1.10686e+06 1.10686e+06 1.10686e+06 1.10686e+06 1.10686e+06 1.10686e+06 1.10686e+06 1.10686e+06 1.10686e+06 1.10686e+06 1.10686e+06 1.10686e+06 1.10686e+06 1.10686e+06 1.10685e+06 1.10685e+06 1.10685e+06 1.10685e+06 1.10685e+06 1.10685e+06 1.10685e+06 1.10685e+06 1.10685e+06 1.10685e+06 1.10684e+06 1.10684e+06 1.10684e+06 1.10684e+06 1.10684e+06 1.10683e+06 1.10683e+06 1.10683e+06 1.10683e+06 1.10683e+06 1.10682e+06 1.10682e+06 1.10681e+06 1.10681e+06 1.10681e+06 1.1068e+06 1.10679e+06 1.10679e+06 1.10678e+06 1.10677e+06 1.10676e+06 1.10675e+06 1.10674e+06 1.10673e+06 1.10671e+06 1.1067e+06 1.10669e+06 1.10669e+06 1.10669e+06 1.10668e+06 1.10664e+06 1.10659e+06 1.10654e+06 1.10646e+06 1.10638e+06 1.1062e+06 1.106e+06 1.10578e+06 1.10573e+06 1.10568e+06 1.10564e+06 1.10559e+06 1.10545e+06 1.10523e+06 1.10499e+06 1.10475e+06 1.10449e+06 1.10423e+06 1.10392e+06 1.10384e+06 1.10374e+06 1.10374e+06 1.10375e+06 1.10375e+06 1.10376e+06 1.10376e+06 1.10377e+06 1.10378e+06 1.10377e+06 1.10377e+06 1.10377e+06 1.10377e+06 1.10378e+06 1.10378e+06 1.10382e+06 1.10386e+06 1.1039e+06 1.10399e+06 1.1041e+06 1.10414e+06 1.10422e+06 1.10429e+06 1.10436e+06 1.10445e+06 1.1045e+06 1.10456e+06 1.10464e+06 1.10472e+06 1.10479e+06 1.10483e+06 1.10489e+06 1.10494e+06 1.10499e+06 1.10507e+06 1.10507e+06 1.10507e+06 1.10507e+06 1.10507e+06 1.10507e+06 1.10512e+06 1.10517e+06 1.10521e+06 1.10526e+06 1.10531e+06 1.10533e+06 1.10534e+06 1.10536e+06 1.10538e+06 1.1054e+06 1.10542e+06 1.10544e+06 1.10547e+06 1.10549e+06 1.1055e+06 1.10553e+06 1.10555e+06 1.10557e+06 1.10559e+06 1.10561e+06 1.10562e+06 1.10564e+06 1.10566e+06 1.10568e+06 1.10571e+06 1.10572e+06 1.10574e+06 1.10576e+06 1.10578e+06 1.1058e+06 1.1058e+06 1.10581e+06 1.10581e+06 1.10581e+06 1.10581e+06 1.10583e+06 1.10584e+06 1.10585e+06 1.10587e+06 1.10588e+06 1.10589e+06 1.1059e+06 1.10591e+06 1.10592e+06 1.10593e+06 1.10594e+06 1.10595e+06 1.10596e+06 1.10596e+06 1.10597e+06 1.10598e+06 1.10599e+06 1.10599e+06 1.106e+06 1.106e+06 1.106e+06 1.106e+06 1.106e+06 1.10601e+06 1.10601e+06 1.10601e+06 1.10601e+06 1.10602e+06 1.10602e+06 1.10602e+06 1.10603e+06 1.10603e+06 1.10603e+06 1.10604e+06 1.10604e+06 1.10604e+06 1.10604e+06 1.10604e+06 1.10604e+06 1.10605e+06 1.10605e+06 1.10605e+06 1.10605e+06 1.10605e+06 1.10605e+06 1.10605e+06 1.10605e+06 1.10605e+06 1.10605e+06 1.10605e+06 1.10605e+06 1.10605e+06 1.10605e+06 1.10605e+06 1.10605e+06 1.10605e+06 1.10604e+06 1.10604e+06 1.10604e+06 1.10604e+06 1.10604e+06 1.10604e+06 1.10604e+06 1.10603e+06 1.10603e+06 1.10603e+06 1.10603e+06 1.10603e+06 1.10603e+06 1.10603e+06 1.10603e+06 1.10603e+06 1.10603e+06 1.10602e+06 1.10602e+06 1.10602e+06 1.10602e+06 1.10601e+06 1.10601e+06 1.10601e+06 1.106e+06 1.106e+06 1.106e+06 1.106e+06 1.10599e+06 1.10599e+06 1.10599e+06 1.10599e+06 1.10599e+06 1.10599e+06 1.10599e+06 1.10599e+06 1.10598e+06 1.10598e+06 1.10597e+06 1.10597e+06 1.10597e+06 1.10596e+06 1.10596e+06 1.10596e+06 1.10596e+06 1.10595e+06 1.10595e+06 1.10595e+06 1.10595e+06 1.10595e+06 1.10594e+06 1.10594e+06 1.10594e+06 1.10594e+06 1.10594e+06 1.10593e+06 1.10593e+06 1.10593e+06 1.10592e+06 1.10592e+06 1.10591e+06 1.10591e+06 1.10591e+06 1.1059e+06 1.1059e+06 1.1059e+06 1.1059e+06 1.1059e+06 1.1059e+06 1.1059e+06 1.10589e+06 1.10589e+06 1.10589e+06 1.10588e+06 1.10588e+06 1.10588e+06 1.10587e+06 1.10587e+06 1.10587e+06 1.10586e+06 1.10586e+06 1.10586e+06 1.10586e+06 1.10585e+06 1.10585e+06 1.10585e+06 1.10585e+06 1.10585e+06 1.10585e+06 1.10585e+06 1.10585e+06 1.10584e+06 1.10584e+06 1.10583e+06 1.10584e+06 1.10584e+06 1.10583e+06 1.10582e+06 1.10581e+06 1.10582e+06 1.10582e+06 1.10582e+06 1.10581e+06 1.1058e+06 1.10577e+06 1.10575e+06 1.10572e+06 1.10572e+06 1.10577e+06 1.10577e+06 1.10577e+06 1.10578e+06 1.10577e+06 1.10576e+06 1.10576e+06 1.10576e+06 1.10576e+06 1.10576e+06 1.10576e+06 1.10576e+06 1.10576e+06 1.10575e+06 1.10575e+06 1.10574e+06 1.10574e+06 1.10574e+06 1.10574e+06 1.10574e+06 1.10574e+06 1.10574e+06 1.10574e+06 1.10574e+06 1.10574e+06 1.10574e+06 1.10574e+06 1.10574e+06 1.10574e+06 1.10574e+06 1.10574e+06 1.10574e+06 1.10574e+06 1.10574e+06 1.10574e+06 1.10574e+06 1.10574e+06 1.10574e+06 1.10575e+06 1.10575e+06 1.10575e+06 1.10575e+06 1.10575e+06 1.10575e+06 1.10575e+06 1.10575e+06 1.10576e+06 1.10576e+06 1.10576e+06 1.10577e+06 1.10577e+06 1.10577e+06 1.10578e+06 1.10578e+06 1.10579e+06 1.10579e+06 1.1058e+06 1.1058e+06 1.1058e+06 1.1058e+06 1.1058e+06 1.10581e+06 1.10581e+06 1.10581e+06 1.10582e+06 1.10582e+06 1.10583e+06 1.10583e+06 1.10584e+06 1.10584e+06 1.10585e+06 1.10586e+06 1.10586e+06 1.10587e+06 1.10588e+06 1.10589e+06 1.10589e+06 1.1059e+06 1.1059e+06 1.10591e+06 1.10592e+06 1.10592e+06 1.10592e+06 1.10592e+06 1.10593e+06 1.10593e+06 1.10594e+06 1.10595e+06 1.10595e+06 1.10596e+06 1.10597e+06 1.10598e+06 1.10599e+06 