# vtk DataFile Version 2.0
track0
ASCII
DATASET POLYDATA
POINTS 19073 float
-1.001 -0.05 0.0011
-1.0001 -0.0500512 0.00110209
-0.999202 -0.0501029 0.00110424
-0.998303 -0.0501549 0.00110639
-0.997404 -0.0502074 0.00110855
-0.996577 -0.0502561 0.00111055
-0.995064 -0.0503458 0.00111421
-0.993551 -0.0504367 0.00111787
-0.992039 -0.0505289 0.00112155
-0.990526 -0.0506223 0.00112524
-0.989013 -0.0507169 0.00112894
-0.986517 -0.0508753 0.00113512
-0.984021 -0.0510374 0.0011414
-0.981525 -0.0512034 0.00114775
-0.97903 -0.0513732 0.00115416
-0.976532 -0.0515471 0.00116065
-0.974036 -0.051725 0.00116728
-0.97154 -0.0519074 0.00117416
-0.969044 -0.0520944 0.00118111
-0.966549 -0.0522858 0.00118811
-0.964051 -0.0524822 0.00119518
-0.961554 -0.0526831 0.0012025
-0.959058 -0.0528894 0.00121003
-0.956563 -0.053101 0.00121764
-0.954068 -0.0533178 0.00122531
-0.951568 -0.0535406 0.00123308
-0.949072 -0.053769 0.00124103
-0.946576 -0.0540041 0.00124933
-0.944081 -0.0542456 0.00125773
-0.941586 -0.0544936 0.00126621
-0.939086 -0.0547487 0.0012748
-0.936589 -0.0550102 0.00128374
-0.934094 -0.0552793 0.00129298
-0.931599 -0.0555559 0.00130233
-0.929104 -0.0558402 0.00131179
-0.926603 -0.0561339 0.00132139
-0.924106 -0.0564355 0.00133124
-0.92161 -0.0567467 0.00134161
-0.919116 -0.0570677 0.00135212
-0.916622 -0.0573984 0.00136276
-0.914118 -0.0577403 0.00137359
-0.911619 -0.0580915 0.00138493
-0.909122 -0.0584542 0.00139671
-0.906626 -0.0588283 0.00140866
-0.904132 -0.0592148 0.00142079
-0.901623 -0.0596169 0.00143318
-0.900374 -0.0598252 0.00143969
-0.899126 -0.0600364 0.00144622
-0.897878 -0.0602505 0.00145281
-0.896631 -0.060468 0.00145944
-0.895379 -0.0606901 0.00146617
-0.894131 -0.0609153 0.00147302
-0.892883 -0.0611443 0.00148006
-0.891635 -0.0613772 0.00148718
-0.890389 -0.0616141 0.00149435
-0.889136 -0.0618562 0.00150165
-0.888071 -0.0620654 0.001508
-0.887007 -0.0622778 0.00151445
-0.885943 -0.0624932 0.00152102
-0.88488 -0.0627117 0.00152764
-0.883966 -0.0629022 0.00153339
-0.883751 -0.0629476 0.00153475
-0.883536 -0.0629931 0.00153611
-0.883322 -0.0630388 0.00153748
-0.883107 -0.0630845 0.00153884
-0.882892 -0.0631305 0.00154021
-0.881643 -0.0633984 0.0015482
-0.880395 -0.0636709 0.00155629
-0.879147 -0.0639481 0.00156446
-0.877901 -0.0642301 0.00157273
-0.876646 -0.0645192 0.00158121
-0.875396 -0.0648119 0.00158975
-0.874148 -0.0651099 0.00159854
-0.872901 -0.065413 0.00160745
-0.871655 -0.0657213 0.00161646
-0.870398 -0.066038 0.0016257
-0.869148 -0.0663585 0.00163513
-0.867899 -0.0666847 0.00164473
-0.866651 -0.0670167 0.00165444
-0.865406 -0.0673543 0.00166426
-0.864146 -0.0677019 0.00167432
-0.863048 -0.0680101 0.00168321
-0.861952 -0.0683233 0.00169233
-0.860857 -0.0686411 0.00170152
-0.859764 -0.0689636 0.00171075
-0.858832 -0.0692428 0.00171866
-0.858644 -0.0692999 0.00172029
-0.858456 -0.0693572 0.00172192
-0.858268 -0.0694146 0.00172356
-0.85808 -0.0694722 0.00172521
-0.857892 -0.06953 0.00172687
-0.85664 -0.0699154 0.00173792
-0.85539 -0.0703075 0.00174926
-0.854143 -0.0707063 0.00176075
-0.852897 -0.0711118 0.00177232
-0.851633 -0.071531 0.00178425
-0.850381 -0.0719531 0.00179638
-0.849132 -0.0723827 0.0018087
-0.847885 -0.0728195 0.00182118
-0.84664 -0.0732634 0.00183381
-0.845373 -0.0737234 0.00184684
-0.844376 -0.0740915 0.00185723
-0.843381 -0.0744647 0.00186784
-0.842387 -0.0748425 0.00187857
-0.841395 -0.075225 0.00188935
-0.840528 -0.0755641 0.00189883
-0.840244 -0.0756764 0.00190196
-0.839961 -0.075789 0.00190512
-0.839678 -0.0759021 0.00190829
-0.839394 -0.0760155 0.00191148
-0.83911 -0.07613 0.0019147
-0.837857 -0.0766357 0.00192891
-0.836607 -0.0771493 0.0019434
-0.83536 -0.0776707 0.0019581
-0.834117 -0.0781998 0.00197292
-0.832844 -0.07875 0.00198839
-0.831589 -0.0793011 0.00200402
-0.830337 -0.0798605 0.00201984
-0.82909 -0.080428 0.00203584
-0.827845 -0.0810026 0.00205199
-0.826568 -0.0816013 0.00206877
-0.826475 -0.0816458 0.00207001
-0.826381 -0.0816904 0.00207126
-0.826288 -0.081735 0.0020725
-0.826194 -0.0817797 0.00207375
-0.826102 -0.081824 0.00207499
-0.824933 -0.0823838 0.00209061
-0.823767 -0.0829501 0.00210638
-0.822604 -0.0835231 0.0021223
-0.821445 -0.0841026 0.00213837
-0.820256 -0.0847043 0.00215498
-0.818991 -0.085352 0.00217278
-0.81773 -0.0860076 0.00219097
-0.816473 -0.0866707 0.0022095
-0.815219 -0.0873401 0.00222809
-0.813929 -0.0880368 0.00224741
-0.813864 -0.0880727 0.00224841
-0.813798 -0.0881086 0.0022494
-0.813733 -0.0881446 0.0022504
-0.813667 -0.0881805 0.00225139
-0.813602 -0.0882163 0.00225239
-0.812406 -0.0888721 0.00227056
-0.811213 -0.0895337 0.00228888
-0.810024 -0.0902009 0.00230734
-0.808838 -0.0908739 0.0023259
-0.807623 -0.091569 0.00234518
-0.806613 -0.0921518 0.00236147
-0.805605 -0.0927385 0.00237782
-0.804599 -0.0933288 0.00239415
-0.803595 -0.0939216 0.00241053
-0.802648 -0.0944831 0.00242603
-0.80238 -0.094643 0.00243044
-0.802112 -0.0948031 0.00243485
-0.801844 -0.0949634 0.00243926
-0.801577 -0.095124 0.00244368
-0.801308 -0.0952855 0.00244814
-0.800043 -0.0960452 0.00246914
-0.798781 -0.0968088 0.00249019
-0.797521 -0.097576 0.00251129
-0.796263 -0.0983462 0.00253255
-0.794986 -0.0991311 0.0025541
-0.794451 -0.0994609 0.00256312
-0.793916 -0.0997913 0.00257218
-0.793382 -0.100122 0.00258128
-0.792848 -0.100453 0.0025904
-0.792321 -0.10078 0.0025994
-0.791591 -0.101234 0.00261191
-0.790861 -0.101688 0.00262444
-0.790132 -0.102142 0.00263695
-0.789403 -0.102598 0.00264944
-0.78867 -0.103055 0.00266191
-0.787405 -0.103846 0.00268333
-0.786141 -0.104638 0.00270489
-0.784877 -0.105432 0.00272665
-0.783613 -0.106225 0.00274846
-0.782344 -0.10702 0.00277027
-0.782326 -0.107031 0.00277057
-0.782309 -0.107042 0.00277087
-0.782291 -0.107053 0.00277117
-0.782274 -0.107063 0.00277147
-0.782256 -0.107074 0.00277177
-0.781005 -0.107856 0.00279316
-0.779753 -0.108637 0.00281445
-0.778501 -0.109417 0.00283565
-0.777248 -0.110197 0.00285697
-0.776 -0.110968 0.00287821
-0.775216 -0.11145 0.00289152
-0.774432 -0.111932 0.00290475
-0.773647 -0.112412 0.00291788
-0.772861 -0.112892 0.00293088
-0.77206 -0.113378 0.00294399
-0.771586 -0.113665 0.00295173
-0.771112 -0.113951 0.00295948
-0.770637 -0.114237 0.00296726
-0.770163 -0.114522 0.00297506
-0.76969 -0.114806 0.00298283
-0.768427 -0.115561 0.00300355
-0.767162 -0.116312 0.00302415
-0.765896 -0.117061 0.00304463
-0.764626 -0.117805 0.00306499
-0.763375 -0.118531 0.00308482
-0.762985 -0.118755 0.00309093
-0.762595 -0.118978 0.00309703
-0.762204 -0.119201 0.00310314
-0.761813 -0.119424 0.00310926
-0.761414 -0.11965 0.00311551
-0.760545 -0.120142 0.00312918
-0.759674 -0.120632 0.00314282
-0.758801 -0.121119 0.00315633
-0.757928 -0.121604 0.00316963
-0.757066 -0.122078 0.00318258
-0.755799 -0.122769 0.00320141
-0.75453 -0.123455 0.00322013
-0.753257 -0.124136 0.00323881
-0.751981 -0.12481 0.00325739
-0.750732 -0.12546 0.00327526
-0.750537 -0.125561 0.00327802
-0.750341 -0.125661 0.00328078
-0.750145 -0.125762 0.00328353
-0.749949 -0.125862 0.00328627
-0.749751 -0.125963 0.00328903
-0.748684 -0.126505 0.00330378
-0.747615 -0.127043 0.00331833
-0.746543 -0.127576 0.00333268
-0.74547 -0.128104 0.0033471
-0.744417 -0.128615 0.00336116
-0.743152 -0.129221 0.00337788
-0.741884 -0.129821 0.00339442
-0.740613 -0.130413 0.00341076
-0.739338 -0.130998 0.00342673
-0.738092 -0.13156 0.00344222
-0.737782 -0.131698 0.00344602
-0.737472 -0.131835 0.00344981
-0.737162 -0.131972 0.0034536
-0.736851 -0.132108 0.00345739
-0.736531 -0.132248 0.00346132
-0.735585 -0.132659 0.00347292
-0.734638 -0.133065 0.0034845
-0.733689 -0.133468 0.00349589
-0.732738 -0.133866 0.00350699
-0.731803 -0.134253 0.00351769
-0.730542 -0.134767 0.00353197
-0.729278 -0.135273 0.00354608
-0.728011 -0.135772 0.00356002
-0.72674 -0.136264 0.00357365
-0.725496 -0.136735 0.00358675
-0.724525 -0.137096 0.0035968
-0.723552 -0.137452 0.00360679
-0.722577 -0.137804 0.00361657
-0.7216 -0.138151 0.00362607
-0.72049 -0.138539 0.00363661
-0.720217 -0.138633 0.00363919
-0.719943 -0.138726 0.00364178
-0.71967 -0.13882 0.00364438
-0.719396 -0.138912 0.00364698
-0.719124 -0.139004 0.00364957
-0.717866 -0.139427 0.00366149
-0.716605 -0.139842 0.00367332
-0.715342 -0.140249 0.00368515
-0.714076 -0.140648 0.00369656
-0.712832 -0.141032 0.00370746
-0.711572 -0.141412 0.00371837
-0.710309 -0.141784 0.00372911
-0.709045 -0.142149 0.00373966
-0.707778 -0.142506 0.00374989
-0.70653 -0.14285 0.00375975
-0.705267 -0.143189 0.00376951
-0.704002 -0.143522 0.00377922
-0.702735 -0.143847 0.00378865
-0.701466 -0.144164 0.00379769
-0.700214 -0.14447 0.00380661
-0.69966 -0.144602 0.00381052
-0.699105 -0.144732 0.0038144
-0.69855 -0.144862 0.00381829
-0.697995 -0.14499 0.0038222
-0.697374 -0.145131 0.00382659
-0.696678 -0.145287 0.00383147
-0.695982 -0.145442 0.00383624
-0.695285 -0.145594 0.0038409
-0.694587 -0.145744 0.00384545
-0.693894 -0.145891 0.00384986
-0.692634 -0.146155 0.0038578
-0.691372 -0.146412 0.00386553
-0.690108 -0.146662 0.00387299
-0.688844 -0.146905 0.00388016
-0.687591 -0.14714 0.00388724
-0.686337 -0.147369 0.0038941
-0.685081 -0.147591 0.00390091
-0.683825 -0.147807 0.00390765
-0.682567 -0.148018 0.00391407
-0.68132 -0.148221 0.00392041
-0.680059 -0.14842 0.00392678
-0.678797 -0.148614 0.00393297
-0.677535 -0.148802 0.00393896
-0.676272 -0.148985 0.00394473
-0.675016 -0.149162 0.00395027
-0.673759 -0.149334 0.00395564
-0.672501 -0.149501 0.00396101
-0.671243 -0.149664 0.00396636
-0.669984 -0.149822 0.00397149
-0.668731 -0.149975 0.00397656
-0.66748 -0.150123 0.00398162
-0.666228 -0.150268 0.0039865
-0.664976 -0.150408 0.0039913
-0.663723 -0.150545 0.00399594
-0.662475 -0.150677 0.00400039
-0.661226 -0.150806 0.0040047
-0.659977 -0.150932 0.00400902
-0.658727 -0.151055 0.00401319
-0.657477 -0.151174 0.00401719
-0.65623 -0.15129 0.00402118
-0.654982 -0.151403 0.00402519
-0.653733 -0.151513 0.00402913
-0.652483 -0.151621 0.00403308
-0.651234 -0.151725 0.00403692
-0.649986 -0.151827 0.00404062
-0.64966 -0.151853 0.00404156
-0.649334 -0.151879 0.0040425
[...]
POINT_DATA 19073
 FIELD attributes 1
U 3 19073 float
6.82411 	-0.388759 	0.0158993 6.8104 	-0.391167 	0.0162563 6.79666 	-0.393583 	0.0162775 6.78292 	-0.396002 	0.0162988 6.76918 	-0.398424 	0.0163203 6.75654 	-0.400655 	0.0163402 6.73343 	-0.404736 	0.0163292 6.71032 	-0.408826 	0.016318 6.68721 	-0.412925 	0.0163064 6.66412 	-0.417034 	0.0162945 6.64135 	-0.421195 	0.0164314 6.6005 	-0.428772 	0.0166168 6.55976 	-0.436187 	0.0166864 6.51904 	-0.443633 	0.0167575 6.47835 	-0.451109 	0.0168302 6.4387 	-0.45872 	0.0171001 6.39513 	-0.467548 	0.0176328 6.35179 	-0.475797 	0.0176681 6.30848 	-0.484084 	0.017704 6.2652 	-0.492409 	0.0177404 6.22306 	-0.500879 	0.0182447 6.17626 	-0.510508 	0.0186351 6.12985 	-0.519578 	0.0186769 6.08348 	-0.528693 	0.0187194 6.03755 	-0.538175 	0.0187629 5.99364 	-0.548329 	0.0190856 5.94474 	-0.559937 	0.0197779 5.89624 	-0.570851 	0.0198286 5.84695 	-0.581199 	0.0198795 5.79772 	-0.591607 	0.0199314 5.75005 	-0.602164 	0.0205923 5.69663 	-0.614281 	0.0210861 5.64377 	-0.625662 	0.0211455 5.59125 	-0.637296 	0.0212064 5.5413 	-0.650693 	0.021271 5.49187 	-0.663318 	0.0216667 5.43619 	-0.67789 	0.0225882 5.38258 	-0.692509 	0.0226627 5.32824 	-0.706699 	0.0227382 5.27236 	-0.719948 	0.0228141 5.21859 	-0.733334 	0.0236863 5.15716 	-0.748915 	0.0243182 5.09709 	-0.7641 	0.0244088 5.04022 	-0.781176 	0.0245039 4.98353 	-0.798392 	0.0246015 4.90837 	-0.818829 	0.0255902 4.88572 	-0.826666 	0.0255962 4.86121 	-0.834227 	0.0256513 4.83283 	-0.84311 	0.0257105 4.80351 	-0.852304 	0.0258175 4.77463 	-0.860814 	0.0261931 4.74252 	-0.870473 	0.0267419 4.71201 	-0.880014 	0.0268939 4.68188 	-0.889565 	0.0269658 4.65216 	-0.899113 	0.0270774 4.62311 	-0.908195 	0.0275646 4.59561 	-0.916812 	0.0278691 4.56957 	-0.925281 	0.0282026 4.54357 	-0.933788 	0.0283055 4.51763 	-0.942329 	0.0284096 4.49537 	-0.949705 	0.0285003 4.49013 	-0.951451 	0.0284993 4.48488 	-0.953198 	0.0284983 4.47963 	-0.954948 	0.0284972 4.47439 	-0.956698 	0.0284961 4.46941 	-0.958398 	0.0285792 4.43794 	-0.968949 	0.0287549 4.40663 	-0.979408 	0.0288954 4.37542 	-0.989922 	0.0290381 4.3444 	-1.00047 	0.0293242 4.31512 	-1.01075 	0.0294892 4.28285 	-1.02235 	0.0301469 4.25164 	-1.03358 	0.0304045 4.22033 	-1.04451 	0.0305207 4.18964 	-1.0554 	0.0307732 4.16012 	-1.06616 	0.0313906 4.12732 	-1.07826 	0.0317118 4.09501 	-1.08978 	0.0319017 4.06477 	-1.1017 	0.0320373 4.03487 	-1.11339 	0.0322075 4.00514 	-1.12462 	0.0324555 3.97605 	-1.13574 	0.0330805 3.94923 	-1.14636 	0.0331233 3.92274 	-1.15698 	0.033112 3.89639 	-1.16766 	0.0330994 3.87407 	-1.1768 	0.0334896 3.86953 	-1.17868 	0.03362 3.865 	-1.18056 	0.0337506 3.86047 	-1.18245 	0.0338812 3.85601 	-1.18431 	0.033994 3.85186 	-1.18607 	0.0340088 3.82097 	-1.19889 	0.0346529 3.79035 	-1.21151 	0.0349186 3.7599 	-1.22422 	0.0349427 3.73069 	-1.23667 	0.0351944 3.70312 	-1.24874 	0.0358828 3.67208 	-1.26257 	0.0362045 3.6416 	-1.27573 	0.0364556 3.61304 	-1.28878 	0.036655 3.5859 	-1.30155 	0.0368618 3.5588 	-1.31389 	0.0370813 3.53436 	-1.32517 	0.0377095 3.51188 	-1.3358 	0.0379247 3.4905 	-1.34613 	0.0379237 3.4693 	-1.3565 	0.0379215 3.45089 	-1.36562 	0.0381244 3.44479 	-1.36872 	0.0383101 3.4387 	-1.37183 	0.0384961 3.43262 	-1.37494 	0.0386824 3.42688 	-1.37791 	0.0387888 3.42155 	-1.38071 	0.0387851 3.39429 	-1.39489 	0.0393732 3.36758 	-1.40842 	0.0397018 3.34147 	-1.42188 	0.0398271 3.31788 	-1.43445 	0.0403193 3.29522 	-1.44686 	0.0410362 3.26879 	-1.46128 	0.0413257 3.24392 	-1.47525 	0.0416064 3.2223 	-1.48799 	0.0418277 3.20099 	-1.50081 	0.0420513 3.17954 	-1.51376 	0.042263 3.17766 	-1.51483 	0.0423216 3.17592 	-1.51583 	0.0423587 3.17437 	-1.51674 	0.0423622 3.17283 	-1.51764 	0.0423658 3.17131 	-1.51854 	0.0423692 3.15111 	-1.53068 	0.0426188 3.1312 	-1.54289 	0.042871 3.1116 	-1.55519 	0.043126 3.09477 	-1.56615 	0.0432406 3.07931 	-1.57659 	0.0433401 3.05879 	-1.59026 	0.0441236 3.03946 	-1.60353 	0.0447834 3.02416 	-1.61471 	0.0448503 3.00925 	-1.62596 	0.0450924 2.99431 	-1.6373 	0.0454161 2.99333 	-1.63797 	0.0454101 2.99241 	-1.63861 	0.0454091 2.9917 	-1.63912 	0.0454239 2.99099 	-1.63963 	0.0454388 2.99029 	-1.64014 	0.0454535 2.97624 	-1.65105 	0.0457314 2.96246 	-1.66203 	0.0459706 2.94893 	-1.67306 	0.046142 2.93902 	-1.68184 	0.0466404 2.93002 	-1.69023 	0.0472483 2.91936 	-1.69912 	0.0473585 2.9096 	-1.70756 	0.0472432 2.90362 	-1.7135 	0.047349 2.89775 	-1.71945 	0.0474541 2.89235 	-1.72509 	0.0475535 2.89042 	-1.72721 	0.047587 2.8885 	-1.72933 	0.0476205 2.8866 	-1.73146 	0.0476541 2.88583 	-1.73262 	0.0477844 2.88524 	-1.73365 	0.0479294 2.87808 	-1.74113 	0.0479934 2.8712 	-1.74836 	0.0481023 2.86626 	-1.75485 	0.0484188 2.86573 	-1.76061 	0.0483551 2.86531 	-1.76645 	0.0482814 2.86325 	-1.76952 	0.04852 2.8614 	-1.77246 	0.0487468 2.8614 	-1.77393 	0.0488386 2.86141 	-1.7754 	0.0489306 2.86143 	-1.77686 	0.0490216 2.8612 	-1.78029 	0.0491066 2.86104 	-1.78374 	0.0490934 2.86095 	-1.7872 	0.0490078 2.86141 	-1.78791 	0.0487376 2.86193 	-1.78838 	0.0484492 2.86147 	-1.79307 	0.0487876 2.86134 	-1.79758 	0.0492773 2.86566 	-1.79727 	0.0494594 2.86999 	-1.79699 	0.0493062 2.87425 	-1.79651 	0.0491626 2.87425 	-1.79654 	0.0491575 2.87427 	-1.79656 	0.0491521 2.87435 	-1.79651 	0.049143 2.87443 	-1.79647 	0.0491339 2.87451 	-1.79643 	0.0491248 2.87857 	-1.79594 	0.0489633 2.88257 	-1.79544 	0.0487998 2.88641 	-1.79486 	0.0491107 2.89482 	-1.79008 	0.049285 2.90333 	-1.78491 	0.0492797 2.90646 	-1.78388 	0.0490029 2.9098 	-1.78258 	0.048707 2.91584 	-1.77861 	0.0482185 2.92175 	-1.7746 	0.0478419 2.92764 	-1.77046 	0.0477765 2.93046 	-1.76897 	0.0479348 2.93327 	-1.76747 	0.0480932 2.93604 	-1.76597 	0.048252 2.94013 	-1.76295 	0.0482951 2.9443 	-1.75976 	0.0483242 2.95306 	-1.75497 	0.0480994 2.9616 	-1.75013 	0.0478717 2.97209 	-1.74217 	0.0476731 2.98333 	-1.73049 	0.0472755 2.99397 	-1.7189 	0.0468798 2.99657 	-1.7166 	0.0468735 2.99932 	-1.71404 	0.0468904 3.00298 	-1.71024 	0.0470218 3.0066 	-1.70643 	0.0471532 3.01025 	-1.70253 	0.0472873 3.01718 	-1.69565 	0.0472564 3.02399 	-1.68876 	0.0468252 3.03067 	-1.68185 	0.0461296 3.03873 	-1.67239 	0.0456773 3.04681 	-1.66243 	0.0452871 3.05768 	-1.65209 	0.0450998 3.0683 	-1.64164 	0.0450432 3.08121 	-1.62676 	0.0448721 3.09369 	-1.6118 	0.0442616 3.10437 	-1.59501 	0.0438102 3.10585 	-1.59302 	0.0437479 3.10744 	-1.59084 	0.0436445 3.10931 	-1.58822 	0.0434462 3.11116 	-1.5856 	0.0432477 3.11303 	-1.58293 	0.0430461 3.12195 	-1.57 	0.0424938 3.13054 	-1.55697 	0.0419345 3.13871 	-1.54378 	0.0421366 3.14758 	-1.52841 	0.042042 3.15637 	-1.51234 	0.0417273 3.16724 	-1.4972 	0.0413155 3.17766 	-1.48176 	0.0408374 3.1891 	-1.46312 	0.0399511 3.19986 	-1.44422 	0.039803 3.20783 	-1.42318 	0.0393189 3.21018 	-1.4191 	0.039212 3.21257 	-1.41463 	0.0392001 3.21503 	-1.40969 	0.0393035 3.21746 	-1.40475 	0.0394067 3.21992 	-1.39963 	0.0395131 3.22627 	-1.38522 	0.0394461 3.23237 	-1.37077 	0.0387782 3.23819 	-1.35625 	0.0377942 3.24371 	-1.3405 	0.03713 3.24881 	-1.32391 	0.0367718 3.25824 	-1.30572 	0.0363657 3.26715 	-1.28741 	0.0359563 3.27481 	-1.26668 	0.0351377 3.28018 	-1.24301 	0.0345545 3.28479 	-1.21973 	0.0339794 3.29044 	-1.20484 	0.0337605 3.29576 	-1.18893 	0.0330645 3.30073 	-1.17242 	0.0321124 3.30534 	-1.15582 	0.0313732 3.3101 	-1.13684 	0.0312952 3.31093 	-1.13219 	0.0313621 3.31173 	-1.12754 	0.031429 3.31251 	-1.12289 	0.0314956 3.31322 	-1.11813 	0.0315116 3.31382 	-1.11314 	0.0313891 3.31908 	-1.09246 	0.0311628 3.32222 	-1.07062 	0.0311023 3.32488 	-1.0487 	0.0299527 3.32624 	-1.02588 	0.0291541 3.32631 	-1.00262 	0.028816 3.33088 	-0.982586 	0.0283262 3.33492 	-0.962422 	0.0278323 3.33668 	-0.941156 	0.0269391 3.33524 	-0.918399 	0.0263505 3.33324 	-0.895881 	0.0257669 3.33592 	-0.876236 	0.0255908 3.33716 	-0.856005 	0.024836 3.33739 	-0.835418 	0.0237967 3.33704 	-0.814672 	0.0237571 3.33415 	-0.793429 	0.0235436 3.33479 	-0.78502 	0.0233089 3.33442 	-0.776451 	0.0233924 3.33396 	-0.76786 	0.0234752 3.33339 	-0.759246 	0.0235573 3.33265 	-0.749614 	0.0233773 3.33125 	-0.738608 	0.0228191 3.32969 	-0.727569 	0.0222603 3.32798 	-0.716497 	0.0217012 3.32611 	-0.705392 	0.0211416 3.32322 	-0.694299 	0.0209433 3.3219 	-0.675956 	0.020354 3.31829 	-0.657341 	0.0195782 3.31422 	-0.638627 	0.0187963 3.30923 	-0.619878 	0.0186993 3.30252 	-0.601535 	0.0180811 3.30018 	-0.584578 	0.0178902 3.29674 	-0.567588 	0.0176777 3.29121 	-0.55067 	0.0168238 3.28339 	-0.534142 	0.0166612 3.27508 	-0.517705 	0.0165519 3.27151 	-0.502452 	0.0160472 3.26726 	-0.487198 	0.0155226 3.26089 	-0.472433 	0.0148797 3.25251 	-0.458195 	0.0143578 3.24356 	-0.444061 	0.0138495 3.23876 	-0.43075 	0.0138336 3.23345 	-0.417462 	0.013746 3.22655 	-0.404771 	0.0131408 3.21797 	-0.392733 	0.0130265 3.20859 	-0.380984 	0.0129778 3.20354 	-0.36979 	0.0124834 3.19722 	-0.358927 	0.0122652 3.19008 	-0.348236 	0.0118108 3.18253 	-0.337625 	0.0113587 3.17358 	-0.328155 	0.0109449 3.16812 	-0.318848 	0.0109546 3.16131 	-0.309994 	0.0105365 3.15428 	-0.301102 	0.0101177 3.14702 	-0.292173 	0.0100527 3.13892 	-0.284014 	0.0100742 3.13324 	-0.276517 	0.00990681 3.12672 	-0.269204 	0.00988287 3.12 	-0.261856 	0.00956957 3.1131 	-0.254478 	0.00925499 3.10595 	-0.247243 	0.00894 3.1045 	-0.245632 	0.00890183 3.10293 	-0.244059 	0.00882911 3.10134 	-0.242485 	0.00875636 3.09975 	-0.24091 	0.00868358 3.09805 	-0.239234 	0.00860622 3.09326 	-0.234696 	0.00841454 3.08839 	-0.230147 	0.00822238 3.08344 	-0.225591 	0.00812394 3.07841 	-0.221028 	0.00814271 3.07306 	-0.216547 	0.00807848 3.06735 	-0.211176 	0.00809415 3.06139 	-0.206104 	0.00805023 3.05529 	-0.201009 	0.00781834 3.04907 	-0.1959 	0.00758618 3.04212 	-0.190956 	0.00752345 3.03707 	-0.186111 	0.00729873 3.0316 	-0.181911 	0.00712068 3.02603 	-0.177699 	0.00694216 3.02036 	-0.173484 	0.00691429 3.01385 	-0.169508 	0.00671647 3.0092 	-0.165102 	0.00676412 3.00422 	-0.161614 	0.00673141 2.99916 	-0.158111 	0.00657465 2.9939 	-0.154629 	0.00644321 2.98769 	-0.151378 	0.00651571 2.98355 	-0.147571 	0.00631665 2.9791 	-0.144439 	0.00617628 2.9745 	-0.141505 	0.00605331 2.96955 	-0.138658 	0.00596338 2.96403 	-0.135971 	0.00578061 2.96011 	-0.132686 	0.00583385 2.95605 	-0.129823 	0.00583288 2.95187 	-0.127348 	0.00572425 2.94714 	-0.125002 	0.00571593 2.94196 	-0.122755 	0.00578434 2.93851 	-0.119912 	0.00562526 2.93493 	-0.117285 	0.0054873 2.93113 	-0.115199 	0.00540191 2.92674 	-0.113248 	0.00528024 2.92214 	-0.111366 	0.00514564 2.91886 	-0.108885 	0.00520544 2.9154 	-0.1065 	0.00522606 2.91191 	-0.104705 	0.00515399 2.90782 	-0.103055 	0.0051786 2.90347 	-0.101459 	0.00524007 2.90061 	-0.0992849 	0.00511146 2.89764 	-0.0972898 	0.00500139 2.89441 	-0.0956992 	0.00493682 2.89059 	-0.0941587 	0.00483317 2.88672 	-0.0928022 	0.0047196 2.88398 	-0.0908822 	0.00477013 2.88101 	-0.0890124 	0.00478548 2.87797 	-0.0875615 	0.00472549 2.87452 	-0.0863445 	0.0047459 2.87083 	-0.0851808 	0.00479807 2.86845 	-0.0834793 	0.00468823 2.86597 	-0.0819364 	0.00459639 2.8631 	-0.0806113 	0.00454134 2.85986 	-0.0794482 	0.00445749 2.85657 	-0.0784478 	0.00436456 2.85428 	-0.0769311 	0.00440772 2.85178 	-0.0754633 	0.00442069 2.84907 	-0.0742489 	0.00437045 2.84613 	-0.0733288 	0.00438963 2.84296 	-0.0724601 	0.00443691 2.84098 	-0.0711034 	0.00434571 2.83891 	-0.0698868 	0.00427086 2.83634 	-0.0687725 	0.0042244 2.83356 	-0.0678733 	0.00415517 2.83073 	-0.0671173 	0.004077 2.8288 	-0.0658971 	0.0041146 2.82668 	-0.0647235 	0.00412563 2.82425 	-0.0636977 	0.00408232 2.82173 	-0.0629848 	0.00409825 2.81899 	-0.0623205 	0.00413883 2.81734 	-0.0612183 	0.00406038 2.8156 	-0.0602399 	0.00399734 2.8133 	-0.0592944 	0.00395804 2.81089 	-0.058584 	0.00390142 2.80845 	-0.0579998 	0.0038366 2.80683 	-0.0569997 	0.00386929 2.80501 	-0.0560443 	0.00387936 2.80285 	-0.0551787 	0.00384459 2.80064 	-0.0546072 	0.00386039 2.79823 	-0.0540896 	0.00389859 2.79685 	-0.0531806 	0.00383325 2.79534 	-0.0523595 	0.00378112 2.79331 	-0.0515746 	0.00374988 2.79121 	-0.0510037 	0.00370275 2.78906 	-0.0505447 	0.00364729 2.78769 	-0.0497155 	0.00367787 2.78613 	-0.0489283 	0.00368769 2.78425 	-0.0482201 	0.00365864 2.78225 	-0.047727 	0.00367035 2.78012 	-0.047317 	0.00370289 2.77897 	-0.0465578 	0.00364589 2.77761 	-0.0458493 	0.00359987 2.77585 	-0.0452024 	0.00357271 2.77401 	-0.0447359 	0.0035321 2.77211 	-0.0443694 	0.003484 2.77095 	-0.0436721 	0.00351032 2.76961 	-0.0430155 	0.00351771 2.76796 	-0.0424288 	0.00349276 2.76616 	-0.0419965 	0.0035008 2.76426 	-0.0416655 	0.00352915 2.76331 	-0.0410233 	0.00348028 2.7621 	-0.0404278 	0.00344515 2.76055 	-0.0398902 	0.00342324 2.75893 	-0.0394783 	0.00339094 2.75724 	-0.0391795 	0.00334928 2.75625 	-0.038586 	0.00337407 2.75503 	-0.0380441 	0.0033757 2.75358 	-0.0375504 	0.00335567 2.75201 	-0.0371578 	0.00335945 2.7503 	-0.0368862 	0.00338414 2.74951 	-0.0363372 	0.00334251 2.7484 	-0.0358439 	0.00331895 2.74704 	-0.0353898 	0.00330181 2.74562 	-0.0350161 	0.00327766 2.7441 	-0.0347704 	0.00324239 2.74327 	-0.034261 	0.00326586 2.74216 	-0.0338102 	0.00326397 2.74088 	-0.033391 	0.00324835 2.73951 	-0.0330343 	0.00324908 2.73795 	-0.0328085 	0.00327029 2.7373 	-0.032335 	0.00323448 2.73626 	-0.0319223 	0.00321714 2.73506 	-0.0315338 	0.00320124 2.73381 	-0.0311927 	0.00318011 2.73243 	-0.0309862 	0.00314427 2.73172 	-0.030544 	0.00316259 2.73069 	-0.0301646 	0.00315408 2.72956 	-0.0298043 	0.00313741 2.72836 	-0.0294794 	0.00313271 2.72693 	-0.0292906 	0.00314905 2.72639 	-0.0288784 	0.00311348 2.72542 	-0.0285311 	0.00309947 2.72435 	-0.0281969 	0.00308352 2.72325 	-0.0278871 	0.0030653 2.72199 	-0.0277156 	0.00303433 2.7214 	-0.0273306 	0.00304939 2.72045 	-0.0270113 	0.00303831 2.71944 	-0.0267013 	0.00302343 2.71839 	-0.0264069 	0.00301753 2.71707 	-0.0262492 	0.00303341 2.71664 	-0.0258905 	0.00300251 2.71573 	-0.0255977 	0.00299295 2.71477 	-0.0253096 	0.0029787 2.7138 	-0.0250286 	0.00296375 2.71264 	-0.0248845 	0.00293569 2.71214 	-0.0245484 	0.00294887 2.71126 	-0.0242778 	0.00293571 2.71035 	-0.0240092 	0.0029217 2.70945 	-0.0237416 	0.00291433 2.70823 	-0.0236076 	0.0029275 2.70788 	-0.0232931 	0.00289894 2.70704 	-0.0230428 	0.00289226 2.70619 	-0.0227918 	0.00287986 2.70533 	-0.0225408 	0.00286746 2.70427 	-0.0224129 	0.00284423 2.70384 	-0.0221191 	0.00285448 2.70303 	-0.0218849 	0.00284405 2.70222 	-0.0216507 	0.00283361 2.70141 	-0.0214167 	0.00282787 2.7003 	-0.0212931 	0.00284087 2.69999 	-0.0210207 	0.00281889 2.69922 	-0.0208023 	0.00281395 2.69846 	-0.0205835 	0.00280452 2.69768 	-0.0203646 	0.00279508 2.69672 	-0.0202463 	0.00277517 2.69633 	-0.0199924 	0.00278439 2.6956 	-0.0197875 	0.00277464 2.69487 	-0.0195826 	0.00276488 2.69414 	-0.0193778 	0.00275987 2.69313 	-0.0192635 	0.0027695 2.69285 	-0.0190267 	0.00275067 2.69217 	-0.0188345 	0.00274569 2.69148 	-0.0186418 	0.00273595 2.69078 	-0.0184491 	0.0027262 2.6899 	-0.0183394 	0.00270862 2.68956 	-0.0181173 	0.00271494 2.68891 	-0.0179358 	0.00270627 2.68826 	-0.0177543 	0.00269759 2.6876 	-0.0175731 	0.00269301 2.68668 	-0.0174661 	0.00270131 2.68644 	-0.0172581 	0.002687 2.68582 	-0.0170869 	0.00268309 2.6852 	-0.0169154 	0.00267559 2.68458 	-0.0167438 	0.00266809 2.68377 	-0.0166402 	0.00265325 2.68346 	-0.0164442 	0.00265924 2.68287 	-0.0162822 	0.00265248 2.68228 	-0.0161201 	0.00264572 2.68169 	-0.0159581 	0.00264229 2.68085 	-0.0158574 	0.00264881 2.68063 	-0.0156737 	0.00263775 2.68008 	-0.0155209 	0.00263524 2.67952 	-0.0153681 	0.00262995 2.67895 	-0.0152152 	0.00262466 2.67822 	-0.0151187 	0.00261308 2.67794 	-0.0149455 	0.00261902 2.67741 	-0.0148008 	0.00261435 2.67688 	-0.0146561 	0.00260968 2.67634 	-0.0145113 	0.00260686 2.67557 	-0.0144167 	0.00261144 2.67537 	-0.0142535 	0.00260145 2.67487 	-0.0141158 	0.00259675 2.67436 	-0.0139778 	0.00259063 2.67384 	-0.0138398 	0.00258451 2.67317 	-0.013748 	0.00257085 2.67291 	-0.0135928 	0.00257244 2.67242 	-0.0134617 	0.00256476 2.67193 	-0.0133306 	0.00255707 2.67144 	-0.0131999 	0.00255106 2.67073 	-0.0131116 	0.0025518 2.67055 	-0.0129661 	0.00254035 2.67008 	-0.0128427 	0.00253447 2.66962 	-0.0127188 	0.00252661 2.66915 	-0.0125949 	0.00251874 2.66852 	-0.0125107 	0.00250638 2.66829 	-0.0123733 	0.00250623 2.66785 	-0.0122565 	0.00249886 2.6674 	-0.0121398 	0.0024915 2.66696 	-0.0120233 	0.00248604 2.6663 	-0.0119427 	0.00248725 2.66613 	-0.0118144 	0.00247785 2.66571 	-0.0117046 	0.00247245 2.66528 	-0.0115944 	0.00246501 2.66485 	-0.0114842 	0.00245757 2.66428 	-0.011407 	0.00244625 2.66407 	-0.0112855 	0.00244497 2.66366 	-0.011181 	0.0024373 2.66326 	-0.0110765 	0.00242963 2.66285 	-0.0109722 	0.0024241 2.66225 	-0.0108975 	0.00242426 2.6621 	-0.0107827 	0.00241531 2.66172 	-0.0106836 	0.00241037 2.66133 	-0.0105843 	0.00240377 2.66094 	-0.0104849 	0.00239718 2.66042 	-0.0104132 	0.00238793 2.66023 	-0.010304 	0.00238719 2.65986 	-0.0102101 	0.00238221 2.65948 	-0.0101161 	0.00237723 2.65911 	-0.0100221 	0.00237329 2.65856 	-0.00995313 	0.00237454 2.65842 	-0.00985085 	0.00236802 2.65807 	-0.00976208 	0.0023647 2.65771 	-0.0096733 	0.00236029 2.65735 	-0.00958451 	0.00235587 2.65687 	-0.00951875 	0.00234845 2.65669 	-0.00942204 	0.00234803 2.65635 	-0.00933777 	0.00234296 2.65601 	-0.00925348 	0.00233788 2.65567 	-0.00916917 	0.00233438 2.65516 	-0.00910575 	0.00233511 2.65503 	-0.00901423 	0.00232923 2.65471 	-0.00893381 	0.00232556 2.65438 	-0.0088533 	0.00232011 2.65406 	-0.00877279 	0.00231467 2.65361 	-0.00871181 	0.00230715 2.65345 	-0.00862431 	0.00230614 2.65315 	-0.00854713 	0.00230153 2.65284 	-0.00846994 	0.00229692 2.65253 	-0.00839282 	0.00229369 2.65206 	-0.00833321 	0.0022944 2.65195 	-0.0082498 	0.0022901 2.65166 	-0.0081755 	0.00228746 2.65136 	-0.00810111 	0.00228375 2.65106 	-0.00802671 	0.00228004 2.65066 	-0.00796852 	0.00227414 2.65051 	-0.00788836 	0.0022742 2.65022 	-0.00781685 	0.00227103 2.64994 	-0.00774533 	0.00226785 2.64966 	-0.00767377 	0.00226569 2.64923 	-0.00761682 	0.0022663 2.64913 	-0.0075405 	0.00226338 2.64886 	-0.00747205 	0.00226209 2.64859 	-0.00740377 	0.00226017 2.64832 	-0.00733549 	0.00225826 2.64794 	-0.00728089 	0.00225439 2.64781 	-0.00720783 	0.00225569 2.64755 	-0.00714207 	0.00225422 2.64729 	-0.0070763 	0.00225275 2.64703 	-0.00701038 	0.00225122 2.64663 	-0.00695634 	0.00225094 2.64653 	-0.00688606 	0.00224637 2.64628 	-0.00682196 	0.00224286 2.64603 	-0.00675773 	0.00223969 2.64578 	-0.00669349 	0.00223653 2.64543 	-0.00664049 	0.00223047 2.6453 	-0.00657221 	0.00222813 2.64506 	-0.0065101 	0.00222318 2.64481 	-0.00644799 	0.00221824 2.64457 	-0.00638613 	0.0022133 2.64419 	-0.00633495 	0.0022097 2.6441 	-0.00627051 	0.00220356 2.64387 	-0.00621153 	0.00219862 2.64363 	-0.00615229 	0.00219332 2.64339 	-0.00609303 	0.00218802 2.64307 	-0.00604394 	0.00218125 2.64295 	-0.00598234 	0.00217826 2.64272 	-0.00592616 	0.00217335 2.6425 	-0.00586997 	0.00216843 2.64227 	-0.005814 	0.00216389 2.64192 	-0.00576728 	0.00216126 2.64183 	-0.00570958 	0.00215613 2.64162 	-0.00565642 	0.00215157 2.6414 	-0.00560306 	0.00214644 2.64117 	-0.0055497 	0.00214131 2.64087 	-0.00550487 	0.00213485 2.64076 	-0.0054493 	0.00213122 2.64055 	-0.00539813 	0.00212575 2.64034 	-0.00534694 	0.00212028 2.64013 	-0.00529591 	0.00211554 2.63981 	-0.00525252 	0.00211272 2.63974 	-0.00519941 	0.00210759 2.63954 	-0.00515025 	0.00210346 2.63934 	-0.00510102 	0.00209897 2.63913 	-0.00505178 	0.00209448 2.63885 	-0.00500973 	0.00208918 2.63875 	-0.00495866 	0.00208721 2.63855 	-0.0049117 	0.00208427 2.63836 	-0.00486474 	0.00208134 2.63816 	-0.00481776 	0.00207829 2.63786 	-0.00477726 	0.00207652 2.63779 	-0.00472902 	0.00207298 2.6376 	-0.00468438 	0.0020705 2.63741 	-0.0046398 	0.00206805 2.63722 	-0.00459521 	0.00206559 2.63696 	-0.0045567 	0.00206201 2.63686 	-0.00451071 	0.00206025 2.63668 	-0.00446799 	0.00205705 2.6365 	-0.00442526 	0.00205386 2.63631 	-0.00438247 	0.00205111 2.63604 	-0.00434511 	0.00204972 2.63597 	-0.00430089 	0.00204651 2.63579 	-0.0042595 	0.00204352 2.63562 	-0.00421809 	