# vtk DataFile Version 2.0
sampleSurface
ASCII
DATASET POLYDATA
POINTS 29975 float
-1.9 1.23597e-23 -2 -2 7.70685e-24 -2 -2 8.56447e-18 -1.90008 -1.90002 -2.06795e-25
-1.90008 -1.8 2.64257e-23 -2 -1.80002 -2.06795e-25 -1.90008 -1.7 5.8376e-23 -2
-1.70002 0 -1.90008 -1.6 1.25553e-22 -2 -1.60003 0 -1.90009 -1.5
2.59613e-22 -2 -1.50003 0 -1.90009 -1.4 5.1359e-22 -2 -1.40003 0
-1.90009 -1.3 9.68249e-22 -2 -1.30003 -4.1359e-25 -1.90009 -1.2 1.7325e-21 -2
-1.20003 0 -1.90009 -1.1 2.92959e-21 -2 -1.10003 0 -1.90009 -1
4.66074e-21 -2 -1.00003 0 -1.90009 -0.9 6.94544e-21 -2 -0.900028 0
-1.90009 -0.8 9.6544e-21 -2 -0.800028 4.1359e-25 -1.9001 -0.7 1.24691e-20 -2
-0.700023 0 -1.9001 -0.6 1.49031e-20 -2 -0.600006 0 -1.9001 -0.5
1.63724e-20 -2 -0.500001 0 -1.9001 -0.4 1.63776e-20 -2 -0.4 0
-1.9001 -0.3 1.4601e-20 -2 -0.3 0 -1.9001 -0.2 1.10266e-20 -2
-0.2 0 -1.9001 -0.1 6.00259e-21 -2 -0.1 1.65436e-24 -1.9001 -2.01598e-21
0 -2 -2.04443e-21 0 -2 -0.0118749 2.06795e-25 -1.9001 0.00389139 -2.35099e-38
-2 1.42248e-10 0 -1.9001 0.1 0 -2 0.1 1.65436e-24 -1.9001
0.2 0 -2 0.2 0 -1.9001 0.3 -1.50463e-36 -2 0.3
0 -1.9001 0.4 0 -2 0.4 0 -1.9001 0.5 0
-2 0.500001 0 -1.9001 0.6 0 -2 0.600004 0 -1.9001
0.7 0 -2 0.700005 0 -1.9001 0.8 0 -2 0.800005
-1.65436e-24 -1.9001 0.9 0 -2 0.900005 0 -1.9001 1 0
-2 1.00001 0 -1.9001 1.1 0 -2 1.10001 0 -1.9001
1.2 0 -2 1.20001 -8.27181e-25 -1.90009 1.3 0 -2 1.30001
0 -1.90009 1.4 0 -2 1.40002 0 -1.90009 1.5 0
-2 1.50002 0 -1.90009 1.6 0 -2 1.60003 0 -1.90008
1.7 0 -2 1.70004 0 -1.90008 1.80004 0 -2 1.80006
-8.27181e-25 -1.9001 1.90009 0 -2 1.9001 0 -1.90015 2.00012 -1.65436e-24
-2 2.00013 1.65436e-24 -1.90019 2.10015 1.65436e-24 -2 2.10016 1.65436e-24 -1.90024
2.20018 -1.65436e-24 -2 2.20019 0 -1.90028 2.30021 3.30872e-24 -2 2.30022
3.30872e-24 -1.90031 2.40023 -3.30872e-24 -2 2.40024 0 -1.90035 2.50025 0
-2 2.50026 0 -1.90037 2.60027 3.30872e-24 -2 2.60027 -3.30872e-24 -1.9004
2.70028 -3.30872e-24 -2 2.70029 -3.30872e-24 -1.90042 2.8003 0 -2 2.80031
3.30872e-24 -1.90044 2.90031 0 -2 2.90032 -3.30872e-24 -1.90046 3.00032 3.30872e-24
-2 3.00033 0 -1.90048 3.10034 3.30872e-24 -2 3.10034 3.30872e-24 -1.9005
3.20035 0 -2 3.20035 0 -1.90051 3.30036 0 -2 3.30036
0 -1.90052 3.40036 3.30872e-24 -2 3.40037 0 -1.90054 3.50037 0
-2 3.50038 4.23516e-22 -1.90054 3.60038 0 -2 3.60039 0 -1.90055
3.70039 0 -2 3.70041 8.47033e-22 -1.90055 3.8004 0 -2 3.80048
3.38813e-21 -1.90051 3.9004 -4.23516e-22 -2 3.90049 -6.77626e-21 -1.90048 4.0004 0
-2 4.00051 0 -1.90041 4.10043 -3.38813e-21 -2 4.10058 0 -1.90022
4.20043 -6.77626e-21 -2 4.20058 1.35525e-20 -1.90011 4.30041 6.77626e-21 -2 4.30055
-1.35525e-20 -1.90008 4.40039 6.77626e-21 -2 4.40052 0 -1.90007 4.50041 6.77626e-21
-2 4.50049 0 -1.90006 4.60045 0 -2 4.60046 0 -1.9
4.70042 -1.35525e-20 -2 4.70043 1.35525e-20 -1.89999 4.80039 0 -2 4.80039
1.35525e-20 -1.89999 4.90036 0 -2 4.90036 0 -1.89999 5.00033 -1.35525e-20
-2 5.00033 -1.35525e-20 -1.89999 5.10029 0 -2 5.1003 0 -1.89999
5.20026 6.77626e-21 -2 5.20026 0 -1.89999 5.30023 6.77626e-21 -2 5.30023
0 -1.89999 5.4002 0 -2 5.4002 0 -1.89999 5.50016 0
-2 5.50017 -6.77626e-21 -1.89999 5.60013 0 -2 5.60013 6.77626e-21 -1.9
5.7001 0 -2 5.7001 3.38813e-21 -1.9 5.80007 0 -2 5.80007
0 -1.9 5.90003 -8.47033e-22 -2 5.90003 0 -1.9 6 -0
-1.9 6 0 -2 -2 4.16864e-18 -1.80015 -1.90005 -4.1359e-25 -1.80016
-1.80005 0 -1.80016 -1.70005 -4.1359e-25 -1.80017 -1.60005 8.27181e-25 -1.80017 -1.50005
-4.1359e-25 -1.80017 -1.40005 8.27181e-25 -1.80018 -1.30005 0 -1.80018 -1.20005 -8.27181e-25
-1.80018 -1.10006 -8.27181e-25 -1.80019 -1.00006 0 -1.80019 -0.900056 0 -1.80019
-0.800055 8.27181e-25 -1.80019 -0.700046 0 -1.80019 -0.600011 3.30872e-24 -1.8002 -0.500001
3.30872e-24 -1.8002 -0.4 0 -1.8002 -0.3 0 -1.8002 -0.2 0
-1.8002 -0.1 0 -1.8002 -0.0119173 0 -1.8002 2.86845e-10 0 -1.8002
0.1 -3.30872e-24 -1.8002 0.2 0 -1.8002 0.3 3.30872e-24 -1.8002 0.4
3.30872e-24 -1.8002 0.500002 -3.30872e-24 -1.8002 0.600008 0 -1.8002 0.70001 0
-1.8002 0.80001 -3.30872e-24 -1.8002 0.90001 0 -1.8002 1.00001 0 -1.80019
1.10001 -1.65436e-24 -1.80019 1.20003 0 -1.80019 1.30003 8.27181e-25 -1.80018 1.40003
-8.27181e-25 -1.80018 1.50004 0 -1.80017 1.60008 -8.27181e-25 -1.80016 1.70009 -8.27181e-25
-1.80014 1.80011 0 -1.80015 1.90013 0 -1.80019 2.00015 1.65436e-24 -1.80022
2.10018 -3.30872e-24 -1.80026 2.2002 0 -1.8003 2.30023 0 -1.80033 2.40025
0 -1.80036 2.50027 -3.30872e-24 -1.80039 2.60028 0 -1.80041 2.7003 -3.30872e-24
-1.80044 2.80031 -3.30872e-24 -1.80046 2.90033 0 -1.80047 3.00034 -1.32349e-23 -1.80049
3.10035 0 -1.80051 3.20036 0 -1.80051 3.30038 0 -1.80053 3.4004
8.47033e-22 -1.80053 3.50046 -3.38813e-21 -1.80049 3.60049 0 -1.80048 3.70055 -6.77626e-21
-1.80043 3.80067 0 -1.80019 3.90068 0 -1.80011 4.00065 0 -1.80008
4.10062 0 -1.80002 4.20059 0 -1.79999 4.30056 -1.35525e-20 -1.79999 4.40053
0 -1.79999 4.50049 1.35525e-20 -1.79999 4.60046 -1.35525e-20 -1.79998 4.70043 0
-1.79998 4.8004 -1.35525e-20 -1.79999 4.90036 0 -1.79999 5.00033 0 -1.79999
5.1003 0 -1.79999 5.20027 6.77626e-21 -1.79999 5.30023 0 -1.79999 5.4002
-6.77626e-21 -1.79999 5.50017 0 -1.79999 5.60013 -3.38813e-21 -1.8 5.7001 0
-1.8 5.80007 -1.69407e-21 -1.8 5.90003 8.47033e-22 -1.8 6 -0 -1.8
-2 -1.05256e-18 -1.70023 -1.90007 0 -1.70024 -1.80007 0 -1.70024 -1.70007
0 -1.70025 -1.60008 -8.27181e-25 -1.70025 -1.50008 8.27181e-25 -1.70026 -1.40008 0
-1.70026 -1.30008 -8.27181e-25 -1.70027 -1.20008 8.27181e-25 -1.70027 -1.10008 0 -1.70028
-1.00008 -8.27181e-25 -1.70028 -0.900084 0 -1.70028 -0.800083 0 -1.70029 -0.700069
0 -1.70029 -0.600017 0 -1.7003 -0.500002 6.61744e-24 -1.7003 -0.4 0
-1.7003 -0.3 0 -1.7003 -0.2 -6.61744e-24 -1.7003 -0.1 -3.30872e-24 -1.7003
-0.0119194 0 -1.7003 4.30425e-10 0 -1.7003 0.1 0 -1.7003 0.2
0 -1.7003 0.3 6.61744e-24 -1.7003 0.4 6.61744e-24 -1.7003 0.500003 0
-1.7003 0.600013 3.30872e-24 -1.7003 0.700015 3.30872e-24 -1.7003 0.800016 0 -1.7003
0.900015 0 -1.70029 1.00002 3.30872e-24 -1.70029 1.10003 -3.30872e-24 -1.70029 1.20004
0 -1.70028 1.30005 0 -1.70027 1.40005 0 -1.70027 1.50008 0
-1.70025 1.60013 1.65436e-24 -1.70023 1.70014 0 -1.70021 1.80015 1.65436e-24 -1.70022
1.90016 0 -1.70024 2.00018 0 -1.70026 2.1002 0 -1.7003 2.20022
3.30872e-24 -1.70033 2.30024 -3.30872e-24 -1.70036 2.40026 0 -1.70038 2.50028 0
-1.70041 2.6003 0 -1.70043 2.70031 0 -1.70045 2.80032 1.32349e-23 -1.70047
2.90034 5.29396e-23 -1.70049 3.00035 4.23516e-22 -1.7005 3.10038 0 -1.7005 3.20044
-3.38813e-21 -1.70047 3.30047 0 -1.70046 3.40053 1.35525e-20 -1.70041 3.50065 1.35525e-20
-1.70019 3.60068 0 -1.70011 3.70069 0 -1.70008 3.8007 0 -1.70001
3.90069 0 -1.69999 4.00066 0 -1.69999 4.10062 0 -1.69998 4.20059
0 -1.69998 4.30056 0 -1.69998 4.40053 0 -1.69998 4.5005 1.35525e-20
-1.69998 4.60046 0 -1.69998 4.70043 0 -1.69998 4.8004 0 -1.69999
4.90037 0 -1.69999 5.00033 1.35525e-20 -1.69999 5.1003 0 -1.69999 5.20027
0 -1.69999 5.30023 -6.77626e-21 -1.69999 5.4002 0 -1.69999 5.50017 0
-1.69999 5.60013 0 -1.7 5.7001 3.38813e-21 -1.7 5.80007 0 -1.7
5.90003 0 -1.7 6 -0 -1.7 -2 1.18217e-17 -1.6003 -1.90009
8.27181e-25 -1.60031 -1.80009 0 -1.60032 -1.7001 0 -1.60033 -1.6001 0
-1.60034 -1.5001 -8.27181e-25 -1.60034 -1.4001 0 -1.60035 -1.30011 0 -1.60036
-1.20011 0 -1.60036 -1.10011 1.65436e-24 -1.60037 -1.00011 1.65436e-24 -1.60037 -0.900112
0 -1.60038 -0.800111 1.65436e-24 -1.60038 -0.700092 0 -1.60039 -0.600022 0
-1.6004 -0.500002 0 -1.6004 -0.4 0 -1.6004 -0.3 0 -1.6004
-0.2 -6.61744e-24 -1.6004 -0.1 0 -1.6004 -0.0119194 0 -1.6004 6
0 -1.6 6 0 -1.6 6 0 -1.68973 5.73901e-10 0
-1.6004 0.1 0 -1.6004 0.2 0 -1.6004 0.3 -6.61744e-24 -1.6004
0.4 -6.61744e-24 -1.6004 0.500004 0 -1.6004 0.600017 0 -1.6004 0.70002
0 -1.6004 0.800021 -6.61744e-24 -1.60039 0.900021 0 -1.60039 1.00003 -3.30872e-24
-1.60039 1.10005 3.30872e-24 -1.60038 1.20006 0 -1.60037 1.30007 0 -1.60036
1.40009 0 -1.60035 1.50016 -1.65436e-24 -1.60032 1.60019 -3.30872e-24 -1.60029 1.70019
0 -1.60028 1.80019 -3.30872e-24 -1.60028 1.9002 0 -1.60029 2.00021 -3.30872e-24
-1.60031 2.10023 0 -1.60034 2.20025 0 -1.60036 2.30026 0 -1.60039
2.40028 -3.30872e-24 -1.60041 2.5003 3.30872e-24 -1.60043 2.60031 0 -1.60045 2.70032
5.29396e-23 -1.60047 2.80034 0 -1.60048 2.90037 0 -1.60049 3.00044 -3.38813e-21
-1.60045 3.10051 0 -1.60039 3.20063 -1.35525e-20 -1.60018 3.30065 -1.35525e-20 -1.6001
3.40067 2.71051e-20 -1.60008 3.50068 0 -1.60001 3.60069 0 -1.59999 3.7007
0 -1.59998 3.80071 0 -1.59998 3.90069 0 -1.59997 4.00066 -2.71051e-20
-1.59998 4.10063 0 -1.59998 4.2006 0 -1.59998 4.30057 0 -1.59998
4.40053 0 -1.59998 4.5005 -2.71051e-20 -1.59998 4.60047 0 -1.59998 4.70043
0 -1.59998 4.8004 0 -1.59999 4.90037 1.35525e-20 -1.59999 5.00034 0
-1.59999 5.1003 0 -1.59999 5.20027 6.77626e-21 -1.59999 5.30024 0 -1.59999
5.4002 -6.77626e-21 -1.59999 5.50017 0 -1.59999 5.60014 3.38813e-21 -1.6 5.7001
3.38813e-21 -1.6 5.80007 0 -1.6 5.90003 0 -1.6 -2 1.01824e-18
-1.50036 -1.90012 -1.65436e-24 -1.50038 -1.80012 -1.65436e-24 -1.50039 -1.70012 -1.65436e-24 -1.50041
-1.60012 0 -1.50042 -1.50013 1.65436e-24 -1.50043 -1.40013 0 -1.50044 -1.30013
-1.65436e-24 -1.50045 -1.20013 -1.65436e-24 -1.50045 -1.10014 0 -1.50046 -1.00014 0
-1.50047 -0.90014 1.65436e-24 -1.50047 -0.800139 0 -1.50048 -0.700115 0 -1.50048
-0.600028 0 -1.5005 -0.500003 0 -1.5005 -0.4 -6.61744e-24 -1.5005 -0.3
6.61744e-24 -1.5005 -0.2 6.61744e-24 -1.5005 -0.1 6.61744e-24 -1.5005 -0.0119194 8.27181e-25
-1.5005 6 0 -1.5 6 -0 -1.5 7.17376e-10 0 -1.5005
0.1 0 -1.5005 0.2 6.61744e-24 -1.5005 0.3 0 -1.5005 0.4
0 -1.5005 0.500005 -6.61744e-24 -1.5005 0.600021 -6.61744e-24 -1.5005 0.700026 -6.61744e-24
-1.5005 0.800026 0 -1.50049 0.900029 0 -1.50049 1.00005 0 -1.50048
1.10007 0 -1.50047 1.20008 0 -1.50046 1.3001 -1.65436e-24 -1.50045 1.40014
1.65436e-24 -1.50043 1.50022 0 -1.50038 1.60024 3.30872e-24 -1.50036 1.70024 0
-1.50035 1.80024 0 -1.50035 1.90024 0 -1.50035 2.00025 0 -1.50036
2.10026 0 -1.50038 2.20027 3.30872e-24 -1.5004 2.30029 0 -1.50042 2.4003
0 -1.50044 2.50031 5.29396e-23 -1.50046 2.60033 0 -1.50047 2.70036 0
[...]
POINT_DATA 29975
FIELD attributes 1
U 3 29975 float
10 0 0 10 0 0 10 0 0 9.99983 -5.73489e-06
-0.000183872 10 0 0 9.99979 -9.84829e-06 -0.000590489 10 0 0
10.0001 -1.2998e-05 -0.00102737 10 0 0 10.0008 -1.55084e-05 -0.00142781 10
0 0 10.002 -1.75143e-05 -0.00178343 10 0 0 10.0035 -1.9094e-05
-0.00209529 10 0 0 10.0054 -2.02874e-05 -0.00238469 10 0 0
10.0076 -2.11114e-05 -0.00264553 10 0 0 10.0102 -2.15758e-05 -0.00285105 10
0 0 10.013 -2.16853e-05 -0.00298282 10 0 0 10.016 -2.14444e-05
-0.00302936 10 0 0 10.019 -2.08606e-05 -0.00298051 10 0 0
10.0219 -1.99475e-05 -0.002833 10 0 0 10.0247 -1.87259e-05 -0.00259151 10
0 0 10.0272 -1.72246e-05 -0.00226774 10 0 0 10.0293 -1.54789e-05
-0.00187761 10 0 0 10.031 -1.35307e-05 -0.0014383 10 0 0
10.0321 -1.14267e-05 -0.000965514 10 0 0 10.0328 -9.21723e-06 -0.000473742 10
-1.38952e-18 4.8855e-18 10 0 0 10.0329 -7.21842e-06 -3.47248e-05 10 0
0 10.0329 -6.94909e-06 2.44328e-05 10 0 0 10.0324 -4.66754e-06 0.000521839
10 0 0 10.0315 -2.41957e-06 0.00101138 10 0 0 10.03
-2.4956e-07 0.00148046 10 0 0 10.028 1.79894e-06 0.00191373 10 0
0 10.0255 3.68389e-06 0.00229382 10 0 0 10.0227 5.36805e-06 0.00260174
10 0 0 10.0196 6.82116e-06 0.00281972 10 0 0 10.0163
8.02205e-06 0.00293489 10 0 0 10.013 8.96016e-06 0.00294227 10 0
0 10.0098 9.63632e-06 0.00284577 10 0 0 10.0068 1.00627e-05 0.00265566
10 0 0 10.0042 1.0256e-05 0.00240649 10 0 0 10.0019
1.02479e-05 0.00211762 10 0 0 9.99997 1.00756e-05 0.00179374 10 0
0 9.9985 9.76693e-06 0.00147153 10 0 0 9.9974 9.35441e-06 0.00117559
10 0 0 9.99665 8.86949e-06 0.000911442 10 0 0 9.99619
8.33694e-06 0.000684595 10 0 0 9.99596 7.77799e-06 0.000496715 10 0
0 9.9959 7.21044e-06 0.000346017 10 0 0 9.99598 6.64766e-06 0.000228292
10 0 0 9.99614 6.09973e-06 0.000138591 10 0 0 9.99637
5.57366e-06 7.21008e-05 10 0 0 9.99662 5.07391e-06 2.43712e-05 10 0
0 9.9969 4.60312e-06 -8.56375e-06 10 0 0 9.99717 4.16235e-06 -3.05979e-05
10 0 0 9.99744 3.75188e-06 -4.49522e-05 10 0 0 9.99769
3.37154e-06 -5.36254e-05 10 0 0 9.99793 3.02065e-06 -5.80532e-05 10 0
0 9.99815 2.69823e-06 -5.94617e-05 10 0 0 9.99835 2.40256e-06 -5.87911e-05
10 0 0 9.99854 2.13241e-06 -5.6743e-05 10 0 0 9.9987
1.88649e-06 -5.38243e-05 10 0 0 9.99885 1.66443e-06 -5.03801e-05 10 0
0 9.99898 1.46396e-06 -4.66899e-05 10 0 0 9.9991 1.28329e-06 -4.2934e-05
10 0 0 9.9992 1.12104e-06 -3.92284e-05 10 0 0 9.9993
9.74441e-07 -3.56709e-05 10 0 0 9.99938 8.41832e-07 -3.22928e-05 10 0
0 9.99945 7.15283e-07 -2.91484e-05 10 0 0 9.99951 6.20262e-07 -2.62467e-05
10 0 0 9.99957 5.40654e-07 -2.35366e-05 10 0 0 9.99962
4.51876e-07 -2.10325e-05 10 0 0 9.99966 3.77117e-07 -1.87509e-05 10 0
0 9.9997 3.13259e-07 -1.66858e-05 10 0 0 9.99973 2.5802e-07 -1.48247e-05
10 0 0 9.99976 2.09227e-07 -1.31531e-05 10 0 0 9.99979
1.65131e-07 -1.16712e-05 10 0 0 9.99981 1.27088e-07 -1.03715e-05 10 0
0 9.99983 9.38921e-08 -9.2502e-06 10 0 0 9.99985 6.48973e-08 -8.3094e-06
10 0 0 9.99986 3.97042e-08 -7.55833e-06 10 0 0 9.99988
1.7934e-08 -7.01725e-06 10 0 0 9.99989 -7.40708e-10 -6.72352e-06 10 0
0 9.9999 -1.6566e-08 -6.74007e-06 10 0 0 9.99992 -2.96732e-08 -7.14047e-06
10 0 0 9.99993 -4.02853e-08 -8.02781e-06 10 0 0 9.99994
-4.83761e-08 -9.61897e-06 10 0 0 9.99996 -5.34731e-08 -1.24318e-05 9.99997 -5.52072e-08
-1.42359e-05 10 -1.41691e-08 -1.97613e-06 10 0 0 9.99999 -9.66786e-06 -0.000939652
10.0003 -1.71476e-05 -0.00222162 10.001 -2.30503e-05 -0.00355745 10.0024 -2.78071e-05 -0.00482879 10.0045
-3.16314e-05 -0.00601685 10.0072 -3.46496e-05 -0.00710945 10.0106 -3.69332e-05 -0.00809575 10.0146 -3.8519e-05
-0.00894825 10.0191 -3.94275e-05 -0.00962033 10.0241 -3.9671e-05 -0.0100576 10.0294 -3.92607e-05 -0.0102106
10.0348 -3.82133e-05 -0.0100456 10.04 -3.65558e-05 -0.00955177 10.0449 -3.4328e-05 -0.00874413 10.0494
-3.15845e-05 -0.00766081 10.0531 -2.83918e-05 -0.0063537 10.056 -2.48274e-05 -0.00487959 10.0581 -2.09771e-05
-0.00329174 10.0592 -1.69325e-05 -0.00163677 10.0594 -1.3276e-05 -0.000155083 10.0594 -1.27812e-05 4.53842e-05
10.0586 -8.60451e-06 0.00172651 10.0569 -4.48233e-06 0.00337797 10.0543 -4.95641e-07 0.0049585 10.0507
3.27368e-06 0.0064186 10.0464 6.74739e-06 0.00770037 10.0414 9.85634e-06 0.00874116 10.0358 1.25443e-05
0.00948313 10.03 1.47718e-05 0.0098845 10.0241 1.65189e-05 0.00992912 10.0184 1.7786e-05 0.00963159
10.013 1.85937e-05 0.00903629 10.0082 1.898e-05 0.00821192 10.0041 1.89976e-05 0.00723216 10.0006
1.87057e-05 0.00617794 9.99794 1.81631e-05 0.00512925 9.99592 1.74292e-05 0.00414186 9.99449 1.65586e-05
0.00325306 9.99358 1.55973e-05 0.00248362 9.99308 1.45837e-05 0.00183982 9.99291 1.35495e-05 0.00131701
9.99297 1.25191e-05 0.00090312 9.9932 1.15112e-05 0.000583037 9.99355 1.0539e-05 0.000341339 9.99396
9.6113e-06 0.000163388 9.99442 8.73354e-06 3.60901e-05 9.99488 7.90861e-06 -5.26407e-05 9.99534 7.13796e-06
-0.000112817 9.99578 6.42168e-06 -0.000151523 9.9962 5.75942e-06 -0.000174234 9.99659 5.14963e-06 -0.000185331
9.99695 4.58977e-06 -0.000188157 9.99727 4.07654e-06 -0.000185255 9.99757 3.60941e-06 -0.000178506 9.99784
3.18681e-06 -0.000169284 9.99808 2.79959e-06 -0.000158636 9.9983 2.45389e-06 -0.000147242 9.99849 2.13845e-06
-0.000135668 9.99866 1.84624e-06 -0.000124305 9.99881 1.59478e-06 -0.000113242 9.99895 1.36616e-06 -0.000102697
9.99907 1.17821e-06 -9.27855e-05 9.99917 1.01384e-06 -8.35129e-05 9.99927 8.51926e-07 -7.49274e-05 9.99935
7.11208e-07 -6.70539e-05 9.99942 5.88464e-07 -5.98832e-05 9.99949 4.8159e-07 -5.33903e-05 9.99954 3.8802e-07
-4.75486e-05 9.99959 3.05113e-07 -4.2343e-05 9.99963 2.32879e-07 -3.77549e-05 9.99967 1.69925e-07 -3.3774e-05
9.99971 1.15176e-07 -3.04034e-05 9.99974 6.77825e-08 -2.76634e-05 9.99976 2.69944e-08 -2.55992e-05 9.99979
-7.81536e-09 -2.42893e-05 9.99981 -3.71628e-08 -2.38572e-05 9.99983 -6.14922e-08 -2.44766e-05 9.99986 -8.1126e-08
-2.63645e-05 9.99988 -9.59053e-08 -2.96834e-05 9.99991 -1.05059e-07 -3.39727e-05 9.99992 -1.08098e-07 -3.62335e-05
10 0 0 10.0002 -1.25851e-05 -0.00230094 10.0008 -2.27535e-05 -0.00490664 10.0021
-3.09939e-05 -0.00752999 10.0041 -3.77228e-05 -0.0100448 10.0069 -4.31748e-05 -0.0124212 10.0105 -4.74998e-05
-0.0146402 10.015 -5.07889e-05 -0.0166655 10.0204 -5.30925e-05 -0.0184257 10.0265 -5.44386e-05 -0.0198179
10.0333 -5.48439e-05 -0.0207273 10.0404 -5.43246e-05 -0.0210501 10.0477 -5.2905e-05 -0.0207153 10.0548
-5.06238e-05 -0.0197003 10.0615 -4.75384e-05 -0.018037 10.0675 -4.37277e-05 -0.0158054 10.0725 -3.92872e-05
-0.013114 10.0765 -3.43275e-05 -0.0100808 10.0792 -2.89708e-05 -0.0068168 10.0808 -2.33489e-05 -0.00341661
10.081 -1.82735e-05 -0.000367772 10.081 -1.75866e-05 4.48088e-05 10.08 -1.17886e-05 0.00350654 10.0777
-6.05554e-06 0.00690552 10.0741 -4.99742e-07 0.0101629 10.0693 4.75993e-06 0.0131787 10.0634 9.61049e-06
0.0158329 10.0566 1.39528e-05 0.0179953 10.0491 1.7706e-05 0.019545 10.0411 2.08136e-05 0.0203945
10.0331 2.32466e-05 0.0205089 10.0252 2.50055e-05 0.0199175 10.0179 2.61202e-05 0.0187108 10.0114
2.66468e-05 0.0170284 10.0058 2.66608e-05 0.0150322 10.0011 2.62453e-05 0.0128866 9.99747 2.54854e-05
0.010743 9.99472 2.44638e-05 0.00871973 9.99279 2.32554e-05 0.00689515 9.99154 2.19239e-05 0.00531143
9.99084 2.05212e-05 0.00398089 9.99057 1.90891e-05 0.00289418 9.99062 1.76608e-05 0.00202808 9.9909
1.62616e-05 0.00135283 9.99133 1.4909e-05 0.000837366 9.99185 1.36149e-05 0.000452154 9.99243 1.23873e-05
0.000170656 9.99304 1.12306e-05 -3.02145e-05 9.99364 1.0148e-05 -0.000169539 9.99422 9.13973e-06 -0.000262311
9.99477 8.20836e-06 -0.000320238 9.99529 7.34871e-06 -0.000352496 9.99577 6.55992e-06 -0.000366146 9.99621
5.82331e-06 -0.000366578 9.99661 5.16101e-06 -0.000357796 9.99698 4.54769e-06 -0.000342915 9.99731 3.97003e-06
-0.000324244 9.9976 3.47674e-06 -0.000303194 9.99787 3.03561e-06 -0.000281068 9.99811 2.63596e-06 -0.000258752
9.99832 2.27936e-06 -0.000236746 9.99851 1.95615e-06 -0.000215539 9.99867 1.67503e-06 -0.000195397 9.99882
1.42751e-06 -0.000176463 9.99895 1.20136e-06 -0.00015885 9.99907 1.00245e-06 -0.000142607 9.99917 8.27525e-07
-0.000127734 9.99926 6.74218e-07 -0.000114207 9.99934 5.40018e-07 -0.000101993 9.99941 4.2229e-07 -9.10611e-05
9.99947 3.196e-07 -8.13818e-05 9.99953 2.30241e-07 -7.29356e-05 9.99958 1.52748e-07 -6.57219e-05 9.99962
8.58592e-08 -5.97647e-05 9.99966 2.84837e-08 -5.51193e-05 9.99969 -2.02939e-08 -5.18769e-05 9.99973 -6.1258e-08
-5.01628e-05 9.99976 -9.51139e-08 -5.01158e-05 9.99978 -1.22341e-07 -5.18372e-05 9.99981 -1.42814e-07 -5.52439e-05
9.99985 -1.55536e-07 -5.94778e-05 9.99986 -1.59765e-07 -6.16161e-05 10 0 0 10.0003
-1.49088e-05 -0.00420196 10.0013 -2.72772e-05 -0.00851113 10.0029 -3.74921e-05 -0.0127305 10.0054 -4.59333e-05
-0.0167839 10.0087 -5.28315e-05 -0.020656 10.013 -5.83425e-05 -0.024319 10.0184 -6.25644e-05 -0.0277003
10.0248 -6.55524e-05 -0.0306669 10.0322 -6.7335e-05 -0.033035 10.0404 -6.79277e-05 -0.0345998 10.0492
-6.7346e-05 -0.0351757 10.0581 -6.56179e-05 -0.034636 10.0669 -6.27915e-05 -0.032941 10.0751 -5.89405e-05
-0.0301482 10.0824 -5.41674e-05 -0.0264007 10.0885 -4.85976e-05 -0.0218899 10.0933 -4.23754e-05 -0.0168204
10.0966 -3.56618e-05 -0.0113806 10.0984 -2.8637e-05 -0.00572633 10.0986 -2.23172e-05 -0.000660871 9.9998
-2.10501e-07 -9.01636e-05 9.9998 -2.10501e-07 -9.01636e-05 9.99986 -1.64975e-07 -6.45476e-05 10.0986 -2.1462e-05
2.4609e-05 10.0974 -1.42415e-05 0.00577847 10.0946 -7.0777e-06 0.0114381 10.0903 -1.15415e-07 0.0168795
10.0845 6.48353e-06 0.0219386 10.0773 1.25684e-05 0.0264112 10.069 1.80092e-05 0.0300714 10.0597
2.27001e-05 0.032706 10.0498 2.65666e-05 0.0341585 10.0398 2.95706e-05 0.0343654 10.0302 3.17138e-05
0.0333752 10.0212 3.30377e-05 0.0313445 10.0132 3.36198e-05 0.0285126 10.0063 3.35619e-05 0.0251602
10.0008 3.29751e-05 0.0215699 9.99644 3.19711e-05 0.017994 9.99323 3.06557e-05 0.0146276 9.991
2.91223e-05 0.0115992 9.98959 2.74491e-05 0.00897502 9.98882 2.5697e-05 0.00677127 9.98855 2.3914e-05
0.00496936 9.98864 2.21395e-05 0.00352944 9.98899 2.0403e-05 0.00240195 9.98951 1.87246e-05 0.00153566
9.99014 1.71174e-05 0.000882376 9.99083 1.55916e-05 0.0003992 9.99154 1.41522e-05 4.93547e-05 9.99226
1.28074e-05 -0.000197581 9.99295 1.15524e-05 -0.00036601 9.99361 1.03963e-05 -0.000475197 9.99423 9.29947e-06
-0.00054026 9.9948 8.29024e-06 -0.000572896 9.99533 7.31253e-06 -0.000582137 9.99582 6.48013e-06 -0.000574581
9.99626 5.72653e-06 -0.000555529 9.99666 5.03739e-06 -0.000528916 9.99702 4.41542e-06 -0.000497511 9.99734
3.85066e-06 -0.000463556 9.99764 3.34084e-06 -0.000428593 9.9979 2.88526e-06 -0.000393713 9.99813 2.47656e-06
-0.000359749 9.99833 2.11451e-06 -0.000327215 9.99852 1.79415e-06 -0.000296444 9.99868 1.50864e-06 -0.00026765
9.99882 1.25668e-06 -0.000240948 9.99895 1.03475e-06 -0.000216378 9.99906 8.39938e-07 -0.000193937 9.99916
6.69391e-07 -0.000173595 9.99925 5.20314e-07 -0.000155312 9.99933 3.90427e-07 -0.00013905 9.9994 2.77612e-07
-0.000124777 9.99946 1.80001e-07 -0.000112483 9.99951 9.59604e-08 -0.000102183 9.99956 2.40907e-08 -9.39242e-05
9.9996 -3.6802e-08 -8.77799e-05 9.99964 -8.77949e-08 -8.38389e-05 9.99968 -1.29879e-07 -8.21648e-05 9.99972
-1.63737e-07 -8.27161e-05 9.99975 -1.89275e-07 -8.51796e-05 9.99978 -2.05204e-07 -8.84948e-05 10 0
0 10.0004 -1.68528e-05 -0.00653524 10.0015 -3.10627e-05 -0.0128558 10.0034 -4.29538e-05 -0.0189193
10.006 -5.28772e-05 -0.0247502 10.0096 -6.10545e-05 -0.0303774 10.0143 -6.76403e-05 -0.0357765 10.0203
-7.27316e-05 -0.0408341 10.0275 -7.63794e-05 -0.045334 10.0359 -7.86037e-05 -0.0489765 10.0454 -7.94096e-05
-0.0514255 10.0557 -7.88037e-05 -0.052375 10.0662 -7.68115e-05 -0.0516163 10.0765 -7.34872e-05 -0.049086
10.0861 -6.89199e-05 -0.0448816 10.0946 -6.32364e-05 -0.0392411 10.1016 -5.65937e-05 -0.0324766 10.107
-4.91744e-05 -0.0249128 10.1107 -4.11867e-05 -0.016839 10.1127 -3.28862e-05 -0.00848357 10.1129 -2.54746e-05
-0.0010158 9.99975 -2.59922e-07 -0.000120896 9.99975 -2.59922e-07 -0.000120896 10.113 -2.44717e-05 -5.23106e-06
10.1115 -1.59912e-05 0.00848126 10.1084 -7.51607e-06 0.0168553 10.1035 7.57446e-07 0.0249501 10.0968
8.60504e-06 0.0325257 10.0885 1.58323e-05 0.039269 10.0787 2.22773e-05 0.04482 10.0677 2.78076e-05
0.0488313 10.0561 3.23284e-05 0.0510433 10.0443 3.57915e-05 0.0513472 10.0329 3.8201e-05 0.049817
10.0223 3.96142e-05 0.0467019 10.0131 4.01376e-05 0.0423814 10.0053 3.99077e-05 0.0372981 9.99911
3.90691e-05 0.031892 9.9944 3.7764e-05 0.0265456 9.99101 3.61229e-05 0.0215485 9.98875 3.42564e-05
0.0170829 9.98739 3.22533e-05 0.0132352 9.98673 3.01781e-05 0.0100176 9.98658 2.80798e-05 0.00739314
9.98681 2.60016e-05 0.00529708 9.9873 2.3975e-05 0.00365348 9.98795 2.20211e-05 0.00238616 9.9887
2.01519e-05 0.00142485 9.9895 1.83844e-05 0.000707986 9.99032 1.67148e-05 0.000183375 9.99114 1.51622e-05
-0.000191921 9.99192 1.36649e-05 -0.000452528 9.99267 1.2281e-05 -0.000625902 9.99337 1.0908e-05 -0.000733714
9.99402 9.74599e-06 -0.000792633 9.99462 8.67712e-06 -0.000815712 9.99517 7.70264e-06 -0.000812887 9.99567
6.80298e-06 -0.000791942 9.99613 5.98354e-06 -0.000758679 9.99654 5.23983e-06 -0.000717447 9.99691 4.5669e-06
-0.000671585 9.99724 3.95992e-06 -0.000623483 9.99754 3.41785e-06 -0.00057489 9.99781 2.93254e-06 -0.00052707
9.99805 2.50052e-06 -0.000480884 9.99826 2.11727e-06 -0.000436911 9.99845 1.77752e-06 -0.000395528 9.99861
1.47757e-06 -0.000356956 9.99876 1.21346e-06 -0.000321304 9.99889 9.81662e-07 -0.000288607 9.99901 7.7881e-07
-0.000258854 9.99911 6.01753e-07 -0.000232005 9.9992 4.47696e-07 -0.000208013 9.99928 3.14112e-07 -0.000186837
9.99936 1.98756e-07 -0.000168449 9.99942 9.96714e-08 -0.000152846 9.99948 1.51767e-08 -0.000140048 9.99953
-5.62004e-08 -0.000130089 9.99957 -1.15856e-07 -0.000123002 9.99961 -1.65099e-07 -0.000118761 9.99965 -2.04813e-07
-0.000117208 9.99969 -2.34876e-07 -0.000117909 9.99973 -2.53676e-07 -0.00011982 10 0 0
10.0005 -1.85327e-05 -0.00919264 10.0016 -3.43141e-05 -0.0177682 10.0033 -4.76377e-05 -0.0258849 10.0059
-5.88421e-05 -0.0337096 10.0094 -6.81471e-05 -0.0413497 10.0142 -7.57077e-05 -0.0488035 10.0204 -8.16162e-05
-0.0559152 10.0281 -8.59107e-05 -0.0623596 10.0374 -8.85925e-05 -0.0676719 10.0482 -8.96433e-05 -0.0713239
10.0599 -8.90485e-05 -0.0728299 10.072 -8.68225e-05 -0.0718587 10.0838 -8.30217e-05 -0.0683137 10.0948
-7.77499e-05 -0.0623575 10.1044 -7.11598e-05 -0.054375 10.1122 -6.34438e-05 -0.0448578 10.118 -5.48283e-05
-0.034301 10.122 -4.559e-05 -0.0231247 10.124 -3.61325e-05 -0.0116378 10.1243 -2.78112e-05 -0.00141077
9.99969 -3.07612e-07 -0.000153313 9.99969 -3.07612e-07 -0.000153313 10.1243 -2.66853e-05 -2.68051e-05 10.1227
-1.70976e-05 0.0116002 10.1193 -7.36547e-06 0.0231281 10.114 2.19278e-06 0.0343605 10.1066 1.12512e-05
0.044973 10.0973 1.95699e-05 0.0545108 10.0861 2.69576e-05 0.0624244 10.0735 3.32535e-05 0.0681656
10.0599 3.8337e-05 0.0713169 10.0462 4.21464e-05 0.0716977 10.0331 4.46903e-05 0.0694174 10.0211
4.60472e-05 0.0648593 10.0107 4.63657e-05 0.0586021 10.0023 4.58306e-05 0.0513137 9.99573 4.46292e-05
0.0436457 9.99097 4.29426e-05 0.0361485 9.98774 4.09274e-05 0.0292201 9.98575 3.87088e-05 0.0230955
9.9847 3.63821e-05 0.0178688 9.98436 3.40059e-05 0.0135322 9.9845 3.16235e-05 0.0100147 9.98499
2.92837e-05 0.00721444 9.98569 2.70169e-05 0.00502056 9.98653 2.48503e-05 0.00332652 9.98744 2.27781e-05
0.00203672 9.98837 2.08333e-05 0.00106918 9.98931 1.89214e-05 0.000355409 9.99022 1.71384e-05 -0.000160464
9.99109 1.5323e-05 -0.000523518 9.99191 1.38052e-05 -0.00076947 9.99268 1.23897e-05 -0.000926622 9.9934
1.10857e-05 -0.0010171 9.99406 9.87317e-06 -0.00105821 9.99466 8.75777e-06 -0.0010633 9.99521 7.73457e-06
-0.00104277 9.99571 6.80288e-06 -0.00100448 9.99616 5.95694e-06 -0.000954408 9.99657 5.1917e-06 -0.000897097
9.99693 4.50051e-06 -0.000835908 9.99726 3.8833e-06 -0.000773325 9.99755 3.33012e-06 -0.000711142 9.99782
2.83696e-06 -0.000650627 9.99805 2.39893e-06 -0.000592655 9.99826 2.01088e-06 -0.000537809 9.99844 1.66827e-06
-0.00048645 9.99861 1.36671e-06 -0.000438783 9.99875 1.10211e-06 -0.0003949 9.99888 8.70674e-07 -0.000354816
9.999 6.68858e-07 -0.000318505 9.9991 4.93459e-07 -0.000285916 9.99919 3.41584e-07 -0.000256997 9.99927
2.1066e-07 -0.0002317 9.99934 9.8444e-08 -0.000209995 9.9994 2.99749e-09 -0.000191868 9.99946 -7.74415e-08
-0.000177307 9.99951 -1.44609e-07 -0.000166283 9.99955 -2.00131e-07 -0.000158701 9.9996 -2.45056e-07 -0.000154329
9.99963 -2.79171e-07 -0.000152702 9.99967 -3.00528e-07 -0.000152905 10 0 0 10.0004
-2.00056e-05 -0.0120692 10.0013 -3.71349e-05 -0.0230679 10.0027 -5.1679e-05 -0.0333984 10.0048 -6.39819e-05
-0.0434114 10.0079 -7.42727e-05 -0.0533332 10.0123 -8.27174e-05 -0.0632139 10.0184 -8.94036e-05 -0.0728581
10.0264 -9.4348e-05 -0.0817969 10.0364 -9.75205e-05 -0.0893315 10.0483 -9.88625e-05 -0.0946485 10.0615
-9.8319e-05 -0.0969894 10.0754 -9.58806e-05 -0.0958355 10.089 -9.16016e-05 -0.0910433 10.1014 -8.56011e-05
-0.0828846 10.112 -7.80617e-05 -0.0719768 10.1204 -6.92137e-05 -0.0590856 10.1266 -5.93191e-05 -0.0449496
10.1306 -4.87813e-05 -0.0301589 10.1325 -3.83725e-05 -0.0151253 10.1327 -2.94739e-05 -0.00182415 9.99965
-3.5318e-07 -0.000186887 9.99965 -3.5318e-07 -0.000186887 10.1327 -2.82698e-05 -2.41841e-05 10.131 -1.77054e-05
0.015117 10.1275 -6.63241e-06 0.0302349 10.122 4.26069e-06 0.0451307 10.1141 1.45288e-05 0.0593924
10.1039 2.39144e-05 0.0723812 10.0914 3.22091e-05 0.0832717 10.0769 3.9218e-05 0.0912085 10.0613
4.47832e-05 0.0955264 10.0455 4.8822e-05 0.0959311 10.0304 5.13481e-05 0.0925844 10.017 5.24706e-05
0.0860699 10.0057 5.23985e-05 0.0772588 9.99677 5.13855e-05 0.0671386 9.99026 4.96801e-05 0.0566476
9.98586 4.7515e-05 0.04655 9.98318 4.50721e-05 0.0373655 9.98181 4.24845e-05 0.0293692 9.98137
3.98483e-05 0.0226381 9.98157 3.71978e-05 0.0171158 9.98219 3.45719e-05 0.0126741 9.98306 3.20405e-05
0.00915719 9.98407 2.96049e-05 0.00640873 9.98516 2.73052e-05 0.00428636 9.98627 2.49899e-05 0.00266673
9.98737 2.28136e-05 0.00144672 9.98843 2.0525e-05 0.000541422 9.98945 1.86453e-05 -0.000117908 9.99041
1.68707e-05 -0.000586494 9.99131 1.52241e-05 -0.000908274 9.99215 1.36715e-05 -0.00111799 9.99292 1.22256e-05
-0.001243 9.99362 1.08889e-05 -0.00130476 9.99427 9.66057e-06 -0.00131995 9.99486 8.53545e-06 -0.00130155
9.99539 7.50938e-06 -0.00125953 9.99587 6.57687e-06 -0.00120152 9.9963 5.73232e-06 -0.00113335 9.99669
4.96886e-06 -0.00105939 9.99704 4.28646e-06 -0.000982901 9.99736 3.67412e-06 -0.000906257 9.99764 3.12775e-06
-0.000831169 9.99789 2.64204e-06 -0.00075884 9.99811 2.21166e-06 -0.000690088 9.99831 1.83162e-06 -0.00062544
9.99849 1.49714e-06 -0.000565212 9.99864 1.20372e-06 -0.000509567 9.99878 9.47182e-07 -0.000458562 9.99891
7.23632e-07 -0.00041219 9.99901 5.29522e-07 -0.000370402 9.99911 3.61642e-07 -0.000333133 9.9992 2.17136e-07
-0.000300318 9.99927 9.35113e-08 -0.000271898 9.99934 -1.14165e-08 -0.000247821 9.9994 -9.97089e-08 -0.000228034
9.99946 -1.73444e-07 -0.000212457 9.9995 -2.34533e-07 -0.000200946 9.99955 -2.84112e-07 -0.000193243 9.99959
-3.2182e-07 -0.000188905 9.99963 -3.45392e-07 -0.000187198 10 0 0 10.0002 -2.1318e-05
-0.0150738 10.0007 -3.95762e-05 -0.0285834 10.0014 -5.51148e-05 -0.0412196 10.0027 -6.83238e-05 -0.0535788
10.0048 -7.94546e-05 -0.0660646 10.0083 -8.86965e-05 -0.0788211 10.0138 -9.61353e-05 -0.0916233 10.0217
-0.000101755 -0.103816 10.0322 -0.00010548 -0.114366 10.0454 -0.000107187 -0.122032 10.0604 -0.000106751
-0.125632 10.0764 -0.000104119 -0.124353 10.0919 -9.93374e-05 -0.117983 10.106 -9.25466e-05 -0.10698
10.1176 -8.3966e-05 -0.092342 10.1264 -7.38677e-05 -0.075266 10.1325 -6.24486e-05 -0.0568613 10.1362
-5.0502e-05 -0.0379278 10.1379 -3.96639e-05 -0.0189034 10.1379 -3.05844e-05 -0.00219236 9.99961 -3.9623e-07
-0.000221089 9.99961 -3.9623e-07 -0.000221089 10.1379 -2.93559e-05 6.90609e-05 10.1363 -1.76942e-05 0.0190436
10.1329 -5.14075e-06 0.0381472 10.1274 7.09378e-06 0.0572804 10.1194 1.85408e-05 0.0759437 10.1085
2.89675e-05 0.0932556 10.0945 3.81511e-05 0.107976 10.0781 4.58425e-05 0.118766 10.0601 5.18203e-05