# vtk DataFile Version 2.0
track0
ASCII
DATASET POLYDATA
POINTS 18925 float
-1.001 -0.05 0.0011
-1.00018 -0.0500512 0.00110508
-0.999357 -0.0501028 0.00111021
-0.998535 -0.0501547 0.00111535
-0.997714 -0.050207 0.0011205
-0.996949 -0.050256 0.00112531
-0.995362 -0.0503584 0.00113532
-0.993775 -0.0504622 0.00114537
-0.992188 -0.0505674 0.00115545
-0.990601 -0.0506741 0.00116558
-0.989013 -0.0507822 0.00117575
-0.986517 -0.0509545 0.00119186
-0.984021 -0.0511308 0.00120816
-0.981525 -0.051311 0.0012246
-0.97903 -0.0514952 0.00124118
-0.976532 -0.0516837 0.00125792
-0.974036 -0.0518762 0.00127487
-0.97154 -0.0520736 0.00129216
-0.969044 -0.0522755 0.0013096
-0.966549 -0.0524821 0.00132718
-0.964051 -0.0526939 0.00134494
-0.961554 -0.0529103 0.00136303
-0.959058 -0.0531324 0.00138144
-0.956563 -0.0533598 0.00140002
-0.954068 -0.0535926 0.00141877
-0.951568 -0.0538318 0.00143773
-0.949072 -0.0540766 0.00145697
-0.946576 -0.0543282 0.00147669
-0.944081 -0.0545866 0.00149661
-0.941586 -0.0548515 0.00151673
-0.939086 -0.0551239 0.00153712
-0.936589 -0.0554028 0.00155798
-0.934093 -0.0556895 0.00157928
-0.931598 -0.0559839 0.00160082
-0.929104 -0.0562863 0.00162259
-0.926602 -0.0565985 0.00164469
-0.924105 -0.0569185 0.00166716
-0.92161 -0.0572483 0.00169035
-0.919115 -0.0575879 0.00171382
-0.916622 -0.0579375 0.00173758
-0.914117 -0.0582988 0.00176175
-0.911618 -0.0586694 0.00178663
-0.909121 -0.0590517 0.00181216
-0.906625 -0.0594458 0.00183803
-0.904132 -0.0598523 0.00186425
-0.901621 -0.0602748 0.00189102
-0.900373 -0.060493 0.00190484
-0.899125 -0.0607141 0.00191872
-0.897877 -0.0609383 0.00193269
-0.89663 -0.0611661 0.00194676
-0.895378 -0.0613984 0.00196104
-0.894129 -0.0616338 0.00197546
-0.892881 -0.061873 0.00199011
-0.891634 -0.0621161 0.00200486
-0.890388 -0.0623631 0.00201969
-0.889135 -0.0626155 0.00203481
-0.888855 -0.0626727 0.00203823
-0.888576 -0.0627301 0.00204167
-0.888296 -0.0627877 0.00204512
-0.888017 -0.0628455 0.00204859
-0.887748 -0.0629015 0.00205194
-0.886776 -0.0631041 0.00206411
-0.885805 -0.0633094 0.00207641
-0.884834 -0.0635172 0.00208878
-0.883864 -0.0637277 0.00210121
-0.882889 -0.063942 0.00211379
-0.88164 -0.0642201 0.00213009
-0.880392 -0.0645029 0.00214658
-0.879145 -0.0647904 0.00216324
-0.877899 -0.0650827 0.00218005
-0.876643 -0.0653821 0.0021972
-0.875393 -0.065685 0.00221445
-0.874145 -0.0659931 0.00223201
-0.872898 -0.0663065 0.00224986
-0.871652 -0.0666251 0.00226786
-0.870394 -0.0669521 0.00228634
-0.869144 -0.0672827 0.00230503
-0.867895 -0.067619 0.00232393
-0.866648 -0.067961 0.0023431
-0.865402 -0.0683086 0.00236246
-0.864142 -0.0686662 0.00238227
-0.863745 -0.0687809 0.00238859
-0.863348 -0.0688962 0.00239494
-0.862951 -0.0690121 0.00240132
-0.862554 -0.0691286 0.0024077
-0.862179 -0.0692396 0.00241377
-0.86132 -0.0694945 0.00242767
-0.860463 -0.0697523 0.00244167
-0.859606 -0.0700129 0.00245578
-0.858751 -0.0702766 0.00247006
-0.857887 -0.0705459 0.00248467
-0.856635 -0.0709406 0.00250599
-0.855386 -0.071342 0.00252767
-0.854138 -0.0717502 0.00254971
-0.852893 -0.072165 0.00257194
-0.851628 -0.0725934 0.00259493
-0.850376 -0.0730244 0.00261811
-0.849127 -0.0734627 0.00264157
-0.84788 -0.0739083 0.00266531
-0.846636 -0.0743605 0.0026893
-0.845368 -0.074829 0.00271404
-0.844976 -0.0749765 0.0027218
-0.844583 -0.0751248 0.0027296
-0.844191 -0.0752737 0.00273743
-0.8438 -0.0754234 0.00274528
-0.843427 -0.0755665 0.00275276
-0.842563 -0.0759 0.00277017
-0.841701 -0.076237 0.00278771
-0.84084 -0.0765775 0.00280539
-0.83998 -0.0769215 0.00282329
-0.839108 -0.0772744 0.00284164
-0.837855 -0.0777869 0.00286817
-0.836605 -0.0783073 0.00289509
-0.835358 -0.0788356 0.00292242
-0.834115 -0.0793712 0.00295011
-0.832842 -0.0799276 0.00297889
-0.831987 -0.0803069 0.0029985
-0.831134 -0.08069 0.00301821
-0.830282 -0.0810766 0.00303807
-0.829432 -0.0814665 0.00305811
-0.82866 -0.0818243 0.0030765
-0.82824 -0.0820202 0.00308655
-0.827822 -0.0822171 0.00309662
-0.827403 -0.0824147 0.00310672
-0.826985 -0.0826132 0.00311685
-0.826563 -0.0828144 0.00312711
-0.8253 -0.0834199 0.00315804
-0.82404 -0.0840332 0.00318924
-0.822784 -0.0846541 0.00322075
-0.821532 -0.0852822 0.00325256
-0.820245 -0.0859354 0.00328546
-0.819357 -0.0863913 0.00330836
-0.818472 -0.086851 0.00333149
-0.817588 -0.0873143 0.00335482
-0.816706 -0.0877805 0.00337825
-0.815891 -0.088215 0.00340006
-0.815498 -0.0884262 0.00341065
-0.815105 -0.0886379 0.00342127
-0.814712 -0.0888504 0.00343193
-0.81432 -0.0890634 0.00344262
-0.813924 -0.0892789 0.00345342
-0.812664 -0.089968 0.00348789
-0.811407 -0.0906636 0.00352269
-0.810153 -0.0913658 0.00355781
-0.808903 -0.0920734 0.00359316
-0.807621 -0.0928049 0.00362973
-0.807037 -0.0931412 0.00364656
-0.806453 -0.0934788 0.0036634
-0.80587 -0.0938176 0.00368026
-0.805287 -0.0941571 0.00369716
-0.804724 -0.0944865 0.00371354
-0.80404 -0.0948875 0.00373348
-0.803357 -0.0952898 0.00375348
-0.802674 -0.0956936 0.00377354
-0.801993 -0.0960988 0.00379365
-0.801304 -0.0965095 0.00381411
-0.80004 -0.0972644 0.00385186
-0.798778 -0.0980231 0.00388972
-0.797519 -0.0987858 0.00392761
-0.796261 -0.0995503 0.0039655
-0.794984 -0.100329 0.00400408
-0.794834 -0.100421 0.0040086
-0.794685 -0.100512 0.00401314
-0.794535 -0.100604 0.00401768
-0.794386 -0.100695 0.00402222
-0.794237 -0.100787 0.00402674
-0.793124 -0.101469 0.00406057
-0.792012 -0.102153 0.00409451
-0.790901 -0.102838 0.00412848
-0.789791 -0.103525 0.00416244
-0.788673 -0.104218 0.00419657
-0.78775 -0.104789 0.00422468
-0.786827 -0.105362 0.00425286
-0.785905 -0.105935 0.00428116
-0.784982 -0.106508 0.00430948
-0.784066 -0.107077 0.00433758
-0.783722 -0.10729 0.00434815
-0.783377 -0.107504 0.00435871
-0.783032 -0.107717 0.00436926
-0.782688 -0.107931 0.00437981
-0.782343 -0.108144 0.00439035
-0.781076 -0.108928 0.00442903
-0.779808 -0.109712 0.0044678
-0.77854 -0.110495 0.00450651
-0.77727 -0.111275 0.00454503
-0.776006 -0.11205 0.00458324
-0.775566 -0.112318 0.0045965
-0.775126 -0.112585 0.00460974
-0.774686 -0.112853 0.00462297
-0.774246 -0.11312 0.00463616
-0.773802 -0.113389 0.00464944
-0.772981 -0.113884 0.00467387
-0.772159 -0.114379 0.00469827
-0.771337 -0.114872 0.00472263
-0.770514 -0.115364 0.00474697
-0.769697 -0.115851 0.00477108
-0.768434 -0.116599 0.00480828
-0.767169 -0.117343 0.00484532
-0.765902 -0.118084 0.0048821
-0.764632 -0.118821 0.00491859
-0.763382 -0.11954 0.00495417
-0.763338 -0.119565 0.00495541
-0.763294 -0.11959 0.00495665
-0.76325 -0.119615 0.00495789
-0.763207 -0.119639 0.00495913
-0.763163 -0.119664 0.00496037
-0.761944 -0.120358 0.00499493
-0.760723 -0.121046 0.00502947
-0.759499 -0.121731 0.00506365
-0.758272 -0.12241 0.00509754
-0.757069 -0.123069 0.00513041
-0.755999 -0.123649 0.00515941
-0.754927 -0.124225 0.00518838
-0.753853 -0.124797 0.0052171
-0.752776 -0.125364 0.00524559
-0.751619 -0.125967 0.00527595
-0.751444 -0.126058 0.00528052
-0.751268 -0.126148 0.00528508
-0.751092 -0.126239 0.00528964
-0.750916 -0.126329 0.00529418
-0.750741 -0.126419 0.00529871
-0.749478 -0.127064 0.00533129
-0.748211 -0.127704 0.00536373
-0.746941 -0.128336 0.00539578
-0.745667 -0.128962 0.00542745
-0.744423 -0.129564 0.00545796
-0.743292 -0.130105 0.00548549
-0.742157 -0.13064 0.00551286
-0.74102 -0.131169 0.00553995
-0.73988 -0.131692 0.00556674
-0.738614 -0.132265 0.00559607
-0.738511 -0.132311 0.00559844
-0.738407 -0.132357 0.00560081
-0.738303 -0.132404 0.00560318
-0.738199 -0.13245 0.00560556
-0.738095 -0.132496 0.00560793
-0.736839 -0.133052 0.00563662
-0.735579 -0.133602 0.00566508
-0.734315 -0.134144 0.00569318
-0.733049 -0.134678 0.00572092
-0.731811 -0.135191 0.0057476
-0.730549 -0.135705 0.00577449
-0.729284 -0.136212 0.0058011
-0.728016 -0.136711 0.00582734
-0.726745 -0.137202 0.00585324
-0.725501 -0.137674 0.0058782
-0.725036 -0.137847 0.0058874
-0.724571 -0.138019 0.00589659
-0.724106 -0.138189 0.00590573
-0.723641 -0.138359 0.00591482
-0.723146 -0.138538 0.00592441
-0.722342 -0.138827 0.00593987
-0.721538 -0.139113 0.00595522
-0.720732 -0.139396 0.00597044
-0.719925 -0.139675 0.00598552
-0.719128 -0.139948 0.00600026
-0.71787 -0.140372 0.00602334
-0.71661 -0.140789 0.00604616
-0.715348 -0.141199 0.00606865
-0.714082 -0.1416 0.00609082
-0.712839 -0.141986 0.00611222
-0.711579 -0.142369 0.00613359
-0.710317 -0.142745 0.00615468
-0.709053 -0.143113 0.00617545
-0.707786 -0.143474 0.00619593
-0.706539 -0.143821 0.00621577
-0.70564 -0.144065 0.00622984
-0.70474 -0.144306 0.00624379
-0.703839 -0.144544 0.00625759
-0.702938 -0.144778 0.00627124
-0.701884 -0.145046 0.006287
-0.701552 -0.145129 0.00629191
-0.701219 -0.145212 0.0062968
-0.700886 -0.145294 0.00630166
-0.700553 -0.145376 0.00630651
-0.700221 -0.145456 0.00631132
-0.700123 -0.14548 0.00631274
-0.700025 -0.145504 0.00631415
-0.699926 -0.145528 0.00631557
-0.699828 -0.145551 0.00631698
-0.699729 -0.145575 0.0063184
-0.698563 -0.145855 0.00633512
-0.697396 -0.146128 0.00635161
-0.696227 -0.146396 0.00636786
-0.695057 -0.146659 0.00638387
-0.693898 -0.146912 0.00639946
-0.692637 -0.147181 0.00641615
-0.691374 -0.147444 0.00643257
-0.69011 -0.147701 0.00644872
-0.688845 -0.147951 0.00646461
-0.687592 -0.148192 0.00648008
-0.686337 -0.148427 0.0064953
-0.685082 -0.148657 0.00651027
-0.683826 -0.14888 0.00652501
-0.682569 -0.149098 0.00653952
-0.681321 -0.149309 0.00655368
-0.68006 -0.149515 0.00656769
-0.678798 -0.149717 0.00658148
-0.677536 -0.149913 0.00659507
-0.676273 -0.150105 0.00660846
-0.675017 -0.15029 0.00662156
-0.67376 -0.15047 0.00663447
-0.672502 -0.150645 0.00664715
-0.671244 -0.150816 0.00665965
-0.669985 -0.150983 0.00667199
-0.668731 -0.151145 0.00668409
-0.667565 -0.151291 0.00669514
-0.666398 -0.151434 0.00670606
-0.665231 -0.151573 0.00671685
-0.664063 -0.15171 0.00672752
-0.662589 -0.151878 0.00674084
-0.662566 -0.15188 0.00674104
-0.662543 -0.151883 0.00674124
-0.662521 -0.151885 0.00674144
-0.662498 -0.151888 0.00674164
-0.662475 -0.15189 0.00674185
-0.661226 -0.152028 0.00675294
-0.659977 -0.152162 0.00676391
[...]
POINT_DATA 18925
 FIELD attributes 2
p 1 18925 float
1.10734e+06 1.10734e+06 1.10734e+06 1.10735e+06 1.10735e+06 1.10735e+06 1.10735e+06 1.10736e+06 1.10736e+06 1.10736e+06 1.10737e+06 1.10737e+06 1.10738e+06 1.10739e+06 1.10739e+06 1.1074e+06 1.10741e+06 1.10741e+06 1.10742e+06 1.10743e+06 1.10743e+06 1.10744e+06 1.10745e+06 1.10746e+06 1.10747e+06 1.10747e+06 1.10748e+06 1.10749e+06 1.1075e+06 1.10751e+06 1.10752e+06 1.10753e+06 1.10754e+06 1.10755e+06 1.10755e+06 1.10756e+06 1.10757e+06 1.10758e+06 1.10759e+06 1.1076e+06 1.10761e+06 1.10763e+06 1.10764e+06 1.10765e+06 1.10767e+06 1.10768e+06 1.10767e+06 1.10767e+06 1.10768e+06 1.10769e+06 1.10771e+06 1.10772e+06 1.10773e+06 1.10773e+06 1.10774e+06 1.10775e+06 1.10775e+06 1.10775e+06 1.10776e+06 1.10776e+06 1.10776e+06 1.10777e+06 1.10777e+06 1.10778e+06 1.10778e+06 1.10779e+06 1.1078e+06 1.10781e+06 1.10781e+06 1.10782e+06 1.10783e+06 1.10784e+06 1.10785e+06 1.10786e+06 1.10786e+06 1.10787e+06 1.10788e+06 1.10789e+06 1.1079e+06 1.10791e+06 1.10792e+06 1.10792e+06 1.10792e+06 1.10792e+06 1.10793e+06 1.10793e+06 1.10794e+06 1.10794e+06 1.10795e+06 1.10795e+06 1.10796e+06 1.10797e+06 1.10798e+06 1.10799e+06 1.108e+06 1.10801e+06 1.10802e+06 1.10802e+06 1.10803e+06 1.10804e+06 1.10805e+06 1.10806e+06 1.10806e+06 1.10806e+06 1.10806e+06 1.10807e+06 1.10807e+06 1.10808e+06 1.10809e+06 1.10809e+06 1.1081e+06 1.10811e+06 1.10812e+06 1.10812e+06 1.10813e+06 1.10814e+06 1.10815e+06 1.10815e+06 1.10816e+06 1.10817e+06 1.10817e+06 1.10818e+06 1.10818e+06 1.10818e+06 1.10818e+06 1.10819e+06 1.1082e+06 1.1082e+06 1.10821e+06 1.10822e+06 1.10823e+06 1.10823e+06 1.10824e+06 1.10824e+06 1.10825e+06 1.10825e+06 1.10825e+06 1.10825e+06 1.10826e+06 1.10826e+06 1.10826e+06 1.10826e+06 1.10827e+06 1.10827e+06 1.10828e+06 1.10828e+06 1.10828e+06 1.10829e+06 1.10829e+06 1.10829e+06 1.1083e+06 1.1083e+06 1.10831e+06 1.10831e+06 1.10832e+06 1.10833e+06 1.10834e+06 1.10835e+06 1.10835e+06 1.10836e+06 1.10837e+06 1.10837e+06 1.10837e+06 1.10837e+06 1.10837e+06 1.10837e+06 1.10836e+06 1.10835e+06 1.10834e+06 1.10833e+06 1.10832e+06 1.10832e+06 1.10832e+06 1.10831e+06 1.10831e+06 1.10831e+06 1.10831e+06 1.1083e+06 1.1083e+06 1.1083e+06 1.1083e+06 1.1083e+06 1.10829e+06 1.10829e+06 1.10828e+06 1.10828e+06 1.10827e+06 1.10827e+06 1.10827e+06 1.10826e+06 1.10826e+06 1.10826e+06 1.10825e+06 1.10825e+06 1.10824e+06 1.10824e+06 1.10823e+06 1.10822e+06 1.10821e+06 1.10819e+06 1.10818e+06 1.10818e+06 1.10818e+06 1.10818e+06 1.10818e+06 1.10818e+06 1.10817e+06 1.10816e+06 1.10815e+06 1.10813e+06 1.10812e+06 1.10811e+06 1.1081e+06 1.10809e+06 1.10807e+06 1.10806e+06 1.10806e+06 1.10805e+06 1.10805e+06 1.10805e+06 1.10805e+06 1.10803e+06 1.10802e+06 1.108e+06 1.10798e+06 1.10797e+06 1.10795e+06 1.10794e+06 1.10792e+06 1.1079e+06 1.10789e+06 1.10789e+06 1.10788e+06 1.10788e+06 1.10788e+06 1.10788e+06 1.10786e+06 1.10784e+06 1.10782e+06 1.10781e+06 1.10779e+06 1.10777e+06 1.10775e+06 1.10773e+06 1.10771e+06 1.10769e+06 1.10769e+06 1.10768e+06 1.10767e+06 1.10766e+06 1.10766e+06 1.10764e+06 1.10763e+06 1.10762e+06 1.10761e+06 1.1076e+06 1.10758e+06 1.10756e+06 1.10754e+06 1.10752e+06 1.1075e+06 1.10748e+06 1.10746e+06 1.10744e+06 1.10743e+06 1.10741e+06 1.1074e+06 1.10739e+06 1.10737e+06 1.10736e+06 1.10735e+06 1.10734e+06 1.10734e+06 1.10733e+06 1.10733e+06 1.10733e+06 1.10732e+06 1.10732e+06 1.10732e+06 1.10732e+06 1.10732e+06 1.1073e+06 1.10729e+06 1.10727e+06 1.10726e+06 1.10725e+06 1.10723e+06 1.10721e+06 1.1072e+06 1.10718e+06 1.10717e+06 1.10716e+06 1.10715e+06 1.10714e+06 1.10712e+06 1.10711e+06 1.1071e+06 1.10708e+06 1.10707e+06 1.10706e+06 1.10705e+06 1.10705e+06 1.10704e+06 1.10703e+06 1.10702e+06 1.10701e+06 1.107e+06 1.107e+06 1.10699e+06 1.10699e+06 1.10698e+06 1.10698e+06 1.10698e+06 1.10698e+06 1.10698e+06 1.10698e+06 1.10697e+06 1.10697e+06 1.10696e+06 1.10696e+06 1.10695e+06 1.10695e+06 1.10694e+06 1.10694e+06 1.10693e+06 1.10693e+06 1.10693e+06 1.10692e+06 1.10692e+06 1.10692e+06 1.10692e+06 1.10691e+06 1.10691e+06 1.10691e+06 1.10691e+06 1.1069e+06 1.1069e+06 1.1069e+06 1.1069e+06 1.1069e+06 1.10689e+06 1.10689e+06 1.10689e+06 1.10689e+06 1.10689e+06 1.10689e+06 1.10689e+06 1.10689e+06 1.10688e+06 1.10688e+06 1.10688e+06 1.10688e+06 1.10688e+06 1.10688e+06 1.10688e+06 1.10688e+06 1.10688e+06 1.10688e+06 1.10688e+06 1.10688e+06 1.10688e+06 1.10687e+06 1.10687e+06 1.10687e+06 1.10687e+06 1.10687e+06 1.10687e+06 1.10687e+06 1.10687e+06 1.10687e+06 1.10687e+06 1.10687e+06 1.10687e+06 1.10687e+06 1.10687e+06 1.10687e+06 1.10687e+06 1.10687e+06 1.10687e+06 1.10687e+06 1.10687e+06 1.10687e+06 1.10687e+06 1.10687e+06 1.10687e+06 1.10687e+06 1.10687e+06 1.10687e+06 1.10687e+06 1.10687e+06 1.10687e+06 1.10687e+06 1.10687e+06 1.10687e+06 1.10687e+06 1.10687e+06 1.10687e+06 1.10687e+06 1.10687e+06 1.10687e+06 1.10687e+06 1.10687e+06 1.10687e+06 1.10687e+06 1.10687e+06 1.10687e+06 1.10687e+06 1.10687e+06 1.10687e+06 1.10687e+06 1.10687e+06 1.10687e+06 1.10687e+06 1.10687e+06 1.10687e+06 1.10687e+06 1.10687e+06 1.10687e+06 1.10687e+06 1.10687e+06 1.10687e+06 1.10687e+06 1.10687e+06 1.10687e+06 1.10687e+06 1.10687e+06 1.10687e+06 1.10687e+06 1.10687e+06 1.10687e+06 1.10687e+06 1.10687e+06 1.10687e+06 1.10687e+06 1.10687e+06 1.10687e+06 1.10687e+06 1.10687e+06 1.10687e+06 1.10687e+06 1.10687e+06 1.10687e+06 1.10687e+06 1.10687e+06 1.10687e+06 1.10687e+06 1.10687e+06 1.10687e+06 1.10687e+06 1.10687e+06 1.10687e+06 1.10687e+06 1.10687e+06 1.10687e+06 1.10687e+06 1.10687e+06 1.10687e+06 1.10687e+06 1.10687e+06 1.10687e+06 1.10687e+06 1.10687e+06 1.10687e+06 1.10687e+06 1.10687e+06 1.10687e+06 1.10687e+06 1.10687e+06 1.10687e+06 1.10687e+06 1.10687e+06 1.10687e+06 1.10687e+06 1.10687e+06 1.10687e+06 1.10687e+06 1.10687e+06 1.10687e+06 1.10687e+06 1.10687e+06 1.10687e+06 1.10687e+06 1.10687e+06 1.10687e+06 1.10687e+06 1.10687e+06 1.10687e+06 1.10687e+06 1.10687e+06 1.10687e+06 1.10687e+06 1.10687e+06 1.10687e+06 1.10687e+06 1.10687e+06 1.10687e+06 1.10687e+06 1.10687e+06 1.10687e+06 1.10687e+06 1.10687e+06 1.10687e+06 1.10687e+06 1.10687e+06 1.10687e+06 1.10687e+06 1.10687e+06 1.10687e+06 1.10687e+06 1.10687e+06 1.10687e+06 1.10687e+06 1.10687e+06 1.10688e+06 1.10688e+06 1.10688e+06 1.10688e+06 1.10688e+06 1.10688e+06 1.10688e+06 1.10688e+06 1.10688e+06 1.10688e+06 1.10688e+06 1.10688e+06 1.10688e+06 1.10688e+06 1.10688e+06 1.10688e+06 1.10688e+06 1.10688e+06 1.10688e+06 1.10688e+06 1.10688e+06 1.10688e+06 1.10688e+06 1.10688e+06 1.10688e+06 1.10688e+06 1.10688e+06 1.10688e+06 1.10688e+06 1.10688e+06 1.10688e+06 1.10688e+06 1.10688e+06 1.10688e+06 1.10688e+06 1.10688e+06 1.10688e+06 1.10688e+06 1.10688e+06 1.10688e+06 1.10688e+06 1.10688e+06 1.10688e+06 1.10688e+06 1.10688e+06 1.10688e+06 1.10688e+06 1.10688e+06 1.10688e+06 1.10688e+06 1.10688e+06 1.10688e+06 1.10688e+06 1.10688e+06 1.10688e+06 1.10688e+06 1.10688e+06 1.10688e+06 1.10688e+06 1.10688e+06 1.10688e+06 1.10688e+06 1.10688e+06 1.10688e+06 1.10688e+06 1.10688e+06 1.10688e+06 1.10688e+06 1.10688e+06 1.10688e+06 1.10688e+06 1.10688e+06 1.10688e+06 1.10688e+06 1.10688e+06 1.10688e+06 1.10688e+06 1.10688e+06 1.10688e+06 1.10688e+06 1.10688e+06 1.10688e+06 1.10688e+06 1.10688e+06 1.10688e+06 1.10688e+06 1.10688e+06 1.10688e+06 1.10688e+06 1.10688e+06 1.10688e+06 1.10688e+06 1.10688e+06 1.10688e+06 1.10688e+06 1.10688e+06 1.10688e+06 1.10688e+06 1.10688e+06 1.10688e+06 1.10688e+06 1.10688e+06 1.10688e+06 1.10688e+06 1.10688e+06 1.10688e+06 1.10688e+06 1.10688e+06 1.10688e+06 1.10688e+06 1.10688e+06 1.10688e+06 1.10688e+06 1.10688e+06 1.10688e+06 1.10688e+06 1.10688e+06 1.10688e+06 1.10688e+06 1.10688e+06 1.10688e+06 1.10688e+06 1.10688e+06 1.10688e+06 1.10688e+06 1.10688e+06 1.10688e+06 1.10688e+06 1.10688e+06 1.10688e+06 1.10688e+06 1.10688e+06 1.10688e+06 1.10688e+06 1.10688e+06 1.10688e+06 1.10688e+06 1.10688e+06 1.10688e+06 1.10688e+06 1.10688e+06 1.10688e+06 1.10688e+06 1.10688e+06 1.10688e+06 1.10688e+06 1.10688e+06 1.10688e+06 1.10688e+06 1.10688e+06 1.10688e+06 1.10688e+06 1.10688e+06 1.10688e+06 1.10688e+06 1.10688e+06 1.10688e+06 1.10688e+06 1.10688e+06 1.10688e+06 1.10688e+06 1.10688e+06 1.10688e+06 1.10688e+06 1.10688e+06 1.10688e+06 1.10688e+06 1.10688e+06 1.10688e+06 1.10688e+06 1.10688e+06 1.10688e+06 1.10688e+06 1.10688e+06 1.10688e+06 1.10688e+06 1.10688e+06 1.10688e+06 1.10688e+06 1.10688e+06 1.10688e+06 1.10688e+06 1.10688e+06 1.10688e+06 1.10688e+06 1.10688e+06 1.10688e+06 1.10688e+06 1.10688e+06 1.10688e+06 1.10688e+06 1.10688e+06 1.10688e+06 1.10688e+06 1.10688e+06 1.10688e+06 1.10688e+06 1.10688e+06 1.10688e+06 1.10688e+06 1.10688e+06 1.10688e+06 1.10688e+06 1.10688e+06 1.10688e+06 1.10688e+06 1.10688e+06 1.10688e+06 1.10688e+06 1.10688e+06 1.10688e+06 1.10688e+06 1.10688e+06 1.10688e+06 1.10688e+06 1.10688e+06 1.10688e+06 1.10688e+06 1.10688e+06 1.10688e+06 1.10688e+06 1.10688e+06 1.10688e+06 1.10688e+06 1.10688e+06 1.10688e+06 1.10688e+06 1.10688e+06 1.10688e+06 1.10688e+06 1.10688e+06 1.10688e+06 1.10688e+06 1.10688e+06 1.10688e+06 1.10688e+06 1.10688e+06 1.10688e+06 1.10688e+06 1.10688e+06 1.10688e+06 1.10688e+06 1.10688e+06 1.10688e+06 1.10688e+06 1.10688e+06 1.10688e+06 1.10688e+06 1.10688e+06 1.10688e+06 1.10688e+06 1.10688e+06 1.10688e+06 1.10688e+06 1.10688e+06 1.10688e+06 1.10688e+06 1.10688e+06 1.10688e+06 1.10688e+06 1.10688e+06 1.10688e+06 1.10688e+06 1.10688e+06 1.10688e+06 1.10688e+06 1.10688e+06 1.10688e+06 1.10688e+06 1.10688e+06 1.10688e+06 1.10688e+06 1.10688e+06 1.10688e+06 1.10688e+06 1.10688e+06 1.10688e+06 1.10688e+06 1.10688e+06 1.10688e+06 1.10688e+06 1.10688e+06 1.10688e+06 1.10688e+06 1.10688e+06 1.10688e+06 1.10688e+06 1.10688e+06 1.10688e+06 1.10688e+06 1.10688e+06 1.10688e+06 1.10688e+06 1.10688e+06 1.10688e+06 1.10688e+06 1.10688e+06 1.10688e+06 1.10688e+06 1.10688e+06 1.10688e+06 1.10688e+06 1.10688e+06 1.10688e+06 1.10688e+06 1.10688e+06 1.10688e+06 1.10688e+06 1.10688e+06 1.10688e+06 1.10688e+06 1.10688e+06 1.10688e+06 1.10688e+06 1.10688e+06 1.10688e+06 1.10688e+06 1.10688e+06 1.10688e+06 1.10688e+06 1.10688e+06 1.10688e+06 1.10688e+06 1.10688e+06 1.10688e+06 1.10688e+06 1.10688e+06 1.10688e+06 1.10688e+06 1.10688e+06 1.10688e+06 1.10688e+06 1.10688e+06 1.10688e+06 1.10688e+06 1.10688e+06 1.10688e+06 1.10688e+06 1.10688e+06 1.10688e+06 1.10688e+06 1.10688e+06 1.10688e+06 1.10688e+06 1.10688e+06 1.10688e+06 1.10688e+06 1.10688e+06 1.10688e+06 1.10688e+06 1.10688e+06 1.10688e+06 1.10688e+06 1.10688e+06 1.10688e+06 1.10688e+06 1.10688e+06 1.10688e+06 1.10688e+06 1.10688e+06 1.10688e+06 1.10688e+06 1.10688e+06 1.10688e+06 1.10688e+06 1.10688e+06 1.10688e+06 1.10688e+06 1.10688e+06 1.10688e+06 1.10688e+06 1.10688e+06 1.10688e+06 1.10688e+06 1.10689e+06 1.10689e+06 1.10689e+06 1.10689e+06 1.10689e+06 1.10689e+06 1.10689e+06 1.10689e+06 1.10689e+06 1.10689e+06 1.10689e+06 1.10689e+06 1.10689e+06 1.10689e+06 1.10689e+06 1.10689e+06 1.10689e+06 1.10689e+06 1.10689e+06 1.10689e+06 1.10689e+06 1.10689e+06 1.10689e+06 1.10689e+06 1.10689e+06 1.10689e+06 1.10689e+06 1.10689e+06 1.10689e+06 1.10689e+06 1.10689e+06 1.10689e+06 1.10689e+06 1.10689e+06 1.10689e+06 1.10689e+06 1.10689e+06 1.10689e+06 1.10689e+06 1.10689e+06 1.10689e+06 1.10689e+06 1.10689e+06 1.10689e+06 1.10689e+06 1.10689e+06 1.10689e+06 1.10689e+06 1.10689e+06 1.10689e+06 1.10689e+06 1.10689e+06 1.10689e+06 1.10689e+06 1.10689e+06 1.10689e+06 1.10689e+06 1.10689e+06 1.10689e+06 1.10689e+06 1.10689e+06 1.10689e+06 1.10689e+06 1.10689e+06 1.10689e+06 1.10689e+06 1.10689e+06 1.10689e+06 1.10689e+06 1.10689e+06 1.10689e+06 1.10689e+06 1.10689e+06 1.10689e+06 1.10689e+06 1.10689e+06 1.10689e+06 1.10689e+06 1.10689e+06 1.10689e+06 1.1069e+06 1.1069e+06 1.1069e+06 1.1069e+06 1.1069e+06 1.1069e+06 1.1069e+06 1.1069e+06 1.1069e+06 1.1069e+06 1.1069e+06 1.1069e+06 1.1069e+06 1.1069e+06 1.1069e+06 1.1069e+06 1.1069e+06 1.1069e+06 1.1069e+06 1.1069e+06 1.1069e+06 1.1069e+06 1.1069e+06 1.1069e+06 1.1069e+06 1.1069e+06 1.1069e+06 1.1069e+06 1.1069e+06 1.1069e+06 1.1069e+06 1.10691e+06 1.10691e+06 1.10691e+06 1.10691e+06 1.10691e+06 1.10691e+06 1.10691e+06 1.10691e+06 1.10691e+06 1.10691e+06 1.10691e+06 1.10691e+06 1.10691e+06 1.10691e+06 1.10691e+06 1.10691e+06 1.10691e+06 1.10691e+06 1.10691e+06 1.10692e+06 1.10692e+06 1.10692e+06 1.10692e+06 1.10692e+06 1.10692e+06 1.10692e+06 1.10692e+06 1.10692e+06 1.10692e+06 1.10692e+06 1.10692e+06 1.10692e+06 1.10692e+06 1.10693e+06 1.10693e+06 1.10693e+06 1.10693e+06 1.10693e+06 1.10693e+06 1.10693e+06 1.10693e+06 1.10693e+06 1.10693e+06 1.10693e+06 1.10693e+06 1.10694e+06 1.10694e+06 1.10694e+06 1.10694e+06 1.10694e+06 1.10694e+06 1.10694e+06 1.10694e+06 1.10694e+06 1.10695e+06 1.10695e+06 1.10695e+06 1.10695e+06 1.10695e+06 1.10695e+06 1.10695e+06 1.10696e+06 1.10696e+06 1.10696e+06 1.10696e+06 1.10696e+06 1.10696e+06 1.10696e+06 1.10697e+06 1.10697e+06 1.10697e+06 1.10697e+06 1.10697e+06 1.10697e+06 1.10698e+06 1.10698e+06 1.10698e+06 1.10698e+06 1.10698e+06 1.10699e+06 1.10699e+06 1.10699e+06 1.10699e+06 1.10699e+06 1.107e+06 1.107e+06 1.107e+06 1.107e+06 1.10701e+06 1.10701e+06 1.10701e+06 1.10702e+06 1.10702e+06 1.10702e+06 1.10702e+06 1.10703e+06 1.10703e+06 1.10703e+06 1.10704e+06 1.10704e+06 1.10704e+06 1.10705e+06 1.10705e+06 1.10705e+06 1.10706e+06 1.10706e+06 1.10706e+06 1.10707e+06 1.10707e+06 1.10708e+06 1.10708e+06 1.10709e+06 1.10709e+06 1.1071e+06 1.1071e+06 1.10711e+06 1.10711e+06 1.10712e+06 1.10712e+06 1.10713e+06 1.10713e+06 1.10714e+06 1.10714e+06 1.10715e+06 1.10716e+06 1.10716e+06 1.10717e+06 1.10718e+06 1.10718e+06 1.10718e+06 1.10718e+06 1.10718e+06 1.10718e+06 1.10719e+06 1.10719e+06 1.1072e+06 1.10721e+06 1.10721e+06 1.10722e+06 1.10722e+06 1.10722e+06 1.10722e+06 1.10723e+06 1.10723e+06 1.10724e+06 1.10724e+06 1.10725e+06 1.10726e+06 1.10727e+06 1.10728e+06 1.10729e+06 1.1073e+06 1.10731e+06 1.10733e+06 1.10734e+06 1.10735e+06 1.10736e+06 1.10737e+06 1.10737e+06 1.10738e+06 1.10739e+06 1.1074e+06 1.10741e+06 1.10742e+06 1.10744e+06 1.10745e+06 1.10747e+06 1.10749e+06 1.10752e+06 1.10754e+06 1.10756e+06 1.10757e+06 1.10758e+06 1.10759e+06 1.10761e+06 1.10763e+06 1.10765e+06 1.10767e+06 1.10769e+06 1.10771e+06 1.10773e+06 1.10775e+06 1.10777e+06 1.1078e+06 1.10782e+06 1.10783e+06 1.10785e+06 1.10787e+06 1.10787e+06 1.10787e+06 1.10787e+06 1.10788e+06 1.10788e+06 1.10789e+06 1.10789e+06 1.1079e+06 1.10791e+06 1.10791e+06 1.10792e+06 1.10793e+06 1.10793e+06 1.10794e+06 1.10795e+06 1.10795e+06 1.10797e+06 1.10798e+06 1.10799e+06 1.108e+06 1.108e+06 1.10799e+06 1.10796e+06 1.10794e+06 1.10793e+06 1.10789e+06 1.10786e+06 1.10784e+06 1.10781e+06 1.10779e+06 1.10778e+06 1.10778e+06 1.10778e+06 1.10777e+06 1.10777e+06 1.10773e+06 1.10768e+06 1.10763e+06 1.10757e+06 1.10754e+06 1.10747e+06 1.10741e+06 1.10735e+06 1.10731e+06 1.10726e+06 1.10722e+06 1.10718e+06 1.10716e+06 1.10714e+06 1.10713e+06 1.10711e+06 1.10709e+06 1.10708e+06 1.10707e+06 1.10706e+06 1.10705e+06 1.10704e+06 1.10703e+06 1.10703e+06 1.10701e+06 1.10701e+06 1.10701e+06 1.10701e+06 1.10701e+06 1.10701e+06 1.107e+06 1.10699e+06 1.10698e+06 1.10698e+06 1.10697e+06 1.10697e+06 1.10696e+06 1.10695e+06 1.10695e+06 1.10694e+06 1.10694e+06 1.10693e+06 1.10693e+06 1.10693e+06 1.10692e+06 1.10692e+06 1.10692e+06 1.10691e+06 1.10691e+06 1.10691e+06 1.1069e+06 1.1069e+06 1.1069e+06 1.1069e+06 1.10689e+06 1.10689e+06 1.10689e+06 1.10689e+06 1.10689e+06 1.10688e+06 1.10688e+06 1.10688e+06 1.10688e+06 1.10687e+06 1.10687e+06 1.10687e+06 1.10687e+06 1.10687e+06 1.10686e+06 1.10686e+06 1.10686e+06 1.10686e+06 1.10685e+06 1.10685e+06 1.10685e+06 1.10685e+06 1.10684e+06 1.10684e+06 1.10684e+06 1.10684e+06 1.10683e+06 1.10683e+06 1.10683e+06 1.10683e+06 1.10683e+06 1.10682e+06 1.10682e+06 1.10682e+06 1.10682e+06 1.10682e+06 1.10681e+06 1.10681e+06 1.10681e+06 1.1068e+06 1.1068e+06 1.10679e+06 1.10679e+06 1.10678e+06 1.10677e+06 1.10677e+06 1.10676e+06 1.10675e+06 1.10674e+06 1.10673e+06 1.10673e+06 1.10672e+06 1.10672e+06 1.10672e+06 1.10672e+06 1.10671e+06 1.1067e+06 1.1067e+06 1.10669e+06 1.10668e+06 1.10667e+06 1.10666e+06 1.10664e+06 1.10663e+06 1.10661e+06 1.1066e+06 1.10659e+06 1.10656e+06 1.10654e+06 1.1065e+06 1.10645e+06 1.1064e+06 1.10635e+06 1.10625e+06 1.10614e+06 1.10603e+06 1.10592e+06 1.10583e+06 1.10574e+06 1.10566e+06 1.10561e+06 1.1056e+06 1.10559e+06 1.10557e+06 1.10556e+06 1.10556e+06 1.10551e+06 1.10547e+06 1.10542e+06 1.10537e+06 1.10533e+06 1.10532e+06 1.10531e+06 1.10531e+06 1.1053e+06 1.10529e+06 1.10529e+06 1.10529e+06 1.10529e+06 1.10529e+06 1.10529e+06 1.1053e+06 1.1053e+06 1.1053e+06 1.1053e+06 1.10531e+06 1.10533e+06 1.10533e+06 1.10534e+06 1.10538e+06 1.10541e+06 1.10541e+06 1.10541e+06 1.10542e+06 1.10542e+06 1.10542e+06 1.10545e+06 1.10547e+06 1.1055e+06 1.10552e+06 1.10554e+06 1.10556e+06 1.10559e+06 1.10561e+06 1.10564e+06 1.10567e+06 1.10568e+06 1.10568e+06 1.10569e+06 1.1057e+06 1.1057e+06 1.10572e+06 1.10574e+06 1.10575e+06 1.10577e+06 1.10578e+06 1.1058e+06 1.10581e+06 1.10583e+06 1.10584e+06 1.10586e+06 1.10586e+06 1.10586e+06 1.10586e+06 1.10587e+06 1.10587e+06 1.10588e+06 1.10589e+06 1.10591e+06 1.10592e+06 1.10593e+06 1.10595e+06 1.10596e+06 1.10598e+06 1.10599e+06 1.106e+06 1.10602e+06 1.10603e+06 1.10604e+06 1.10605e+06 1.10606e+06 1.10606e+06 1.10607e+06 1.10608e+06 1.10609e+06 1.10609e+06 1.1061e+06 1.1061e+06 1.1061e+06 1.1061e+06 1.10611e+06 1.10611e+06 1.10611e+06 1.10612e+06 1.10612e+06 1.10612e+06 1.10613e+06 1.10613e+06 1.10614e+06 1.10614e+06 1.10614e+06 1.10615e+06 1.10615e+06 1.10615e+06 1.10615e+06 1.10616e+06 1.10616e+06 1.10616e+06 1.10616e+06 1.10616e+06 1.10616e+06 1.10616e+06 1.10616e+06 1.10616e+06 1.10616e+06 1.10616e+06 1.10616e+06 1.10616e+06 1.10617e+06 1.10617e+06 1.10617e+06 1.10617e+06 1.10617e+06 1.10617e+06 1.10616e+06 1.10616e+06 1.10616e+06 1.10616e+06 1.10616e+06 1.10616e+06 1.10616e+06 1.10616e+06 1.10616e+06 1.10616e+06 1.10616e+06 1.10616e+06 1.10615e+06 1.10615e+06 1.10615e+06 1.10615e+06 1.10615e+06 1.10615e+06 1.10615e+06 1.10614e+06 1.10614e+06 1.10614e+06 1.10614e+06 1.10614e+06 1.10613e+06 1.10613e+06 1.10613e+06 1.10613e+06 1.10612e+06 1.10612e+06 1.10612e+06 1.10612e+06 1.10612e+06 1.10612e+06 1.10612e+06 1.10611e+06 1.10611e+06 1.10611e+06 1.1061e+06 1.1061e+06 1.1061e+06 1.1061e+06 1.10609e+06 1.10609e+06 1.10609e+06 1.10608e+06 1.10608e+06 1.10608e+06 1.10608e+06 1.10607e+06 1.10607e+06 1.10607e+06 1.10607e+06 1.10607e+06 1.10606e+06 1.10606e+06 1.10606e+06 1.10606e+06 1.10605e+06 1.10605e+06 1.10604e+06 1.10604e+06 1.10604e+06 1.10603e+06 1.10603e+06 1.10603e+06 1.10602e+06 1.10602e+06 1.10602e+06 1.10602e+06 1.10602e+06 1.10602e+06 1.10602e+06 1.10601e+06 1.10601e+06 1.106e+06 1.106e+06 1.106e+06 1.10599e+06 1.10599e+06 1.10599e+06 1.10598e+06 1.10598e+06 1.10598e+06 1.10598e+06 1.10597e+06 1.10597e+06 1.10597e+06 1.10597e+06 1.10597e+06 1.10596e+06 1.10596e+06 1.10596e+06 1.10596e+06 1.10596e+06 1.10596e+06 1.10596e+06 1.10595e+06 1.10595e+06 1.10595e+06 1.10594e+06 1.10594e+06 1.10594e+06 1.10594e+06 1.10593e+06 1.10593e+06 1.10593e+06 1.10593e+06 1.10592e+06 1.10592e+06 1.10592e+06 1.10592e+06 1.10591e+06 1.1059e+06 1.10589e+06 1.10589e+06 1.10588e+06 1.10585e+06 1.10584e+06 1.10583e+06 1.10582e+06 1.10584e+06 1.10584e+06 1.10584e+06 1.10584e+06 1.10584e+06 1.10584e+06 1.10585e+06 1.10587e+06 1.10587e+06 1.10588e+06 1.10587e+06 1.10586e+06 1.10586e+06 1.10586e+06 1.10585e+06 1.10585e+06 1.10586e+06 1.10585e+06 1.10585e+06 1.10585e+06 1.10585e+06 1.10585e+06 1.10585e+06 1.10585e+06 1.10585e+06 1.10584e+06 1.10584e+06 1.10584e+06 1.10584e+06 1.10584e+06 1.10584e+06 1.10584e+06 1.10584e+06 1.10584e+06 1.10583e+06 1.10583e+06 1.10583e+06 1.10583e+06 1.10583e+06 1.10583e+06 1.10583e+06 1.10583e+06 1.10583e+06 1.10583e+06 1.10583e+06 1.10584e+06 1.10584e+06 1.10584e+06 1.10584e+06 1.10584e+06 1.10584e+06 1.10584e+06 1.10585e+06 1.10585e+06 1.10585e+06 1.10585e+06 1.10585e+06 1.10585e+06 1.10585e+06 1.10586e+06 1.10586e+06 1.10586e+06 1.10587e+06 1.10587e+06 1.10587e+06 1.10588e+06 1.10588e+06 1.10589e+06 1.10589e+06 1.1059e+06 1.1059e+06 1.1059e+06 1.1059e+06 1