# vtk DataFile Version 2.0
track0
ASCII
DATASET POLYDATA
POINTS 18925 float
-1.001 -0.05 0.0011
-1.00018 -0.0500512 0.00110508
-0.999357 -0.0501028 0.00111021
-0.998535 -0.0501547 0.00111535
-0.997714 -0.050207 0.0011205
-0.996949 -0.050256 0.00112531
-0.995362 -0.0503584 0.00113532
-0.993775 -0.0504622 0.00114537
-0.992188 -0.0505674 0.00115545
-0.990601 -0.0506741 0.00116558
-0.989013 -0.0507822 0.00117575
-0.986517 -0.0509545 0.00119186
-0.984021 -0.0511308 0.00120816
-0.981525 -0.051311 0.0012246
-0.97903 -0.0514952 0.00124118
-0.976532 -0.0516837 0.00125792
-0.974036 -0.0518762 0.00127487
-0.97154 -0.0520736 0.00129216
-0.969044 -0.0522755 0.0013096
-0.966549 -0.0524821 0.00132718
-0.964051 -0.0526939 0.00134494
-0.961554 -0.0529103 0.00136303
-0.959058 -0.0531324 0.00138144
-0.956563 -0.0533598 0.00140002
-0.954068 -0.0535926 0.00141877
-0.951568 -0.0538318 0.00143773
-0.949072 -0.0540766 0.00145697
-0.946576 -0.0543282 0.00147669
-0.944081 -0.0545866 0.00149661
-0.941586 -0.0548515 0.00151673
-0.939086 -0.0551239 0.00153712
-0.936589 -0.0554028 0.00155798
-0.934093 -0.0556895 0.00157928
-0.931598 -0.0559839 0.00160082
-0.929104 -0.0562863 0.00162259
-0.926602 -0.0565985 0.00164469
-0.924105 -0.0569185 0.00166716
-0.92161 -0.0572483 0.00169035
-0.919115 -0.0575879 0.00171382
-0.916622 -0.0579375 0.00173758
-0.914117 -0.0582988 0.00176175
-0.911618 -0.0586694 0.00178663
-0.909121 -0.0590517 0.00181216
-0.906625 -0.0594458 0.00183803
-0.904132 -0.0598523 0.00186425
-0.901621 -0.0602748 0.00189102
-0.900373 -0.060493 0.00190484
-0.899125 -0.0607141 0.00191872
-0.897877 -0.0609383 0.00193269
-0.89663 -0.0611661 0.00194676
-0.895378 -0.0613984 0.00196104
-0.894129 -0.0616338 0.00197546
-0.892881 -0.061873 0.00199011
-0.891634 -0.0621161 0.00200486
-0.890388 -0.0623631 0.00201969
-0.889135 -0.0626155 0.00203481
-0.888855 -0.0626727 0.00203823
-0.888576 -0.0627301 0.00204167
-0.888296 -0.0627877 0.00204512
-0.888017 -0.0628455 0.00204859
-0.887748 -0.0629015 0.00205194
-0.886776 -0.0631041 0.00206411
-0.885805 -0.0633094 0.00207641
-0.884834 -0.0635172 0.00208878
-0.883864 -0.0637277 0.00210121
-0.882889 -0.063942 0.00211379
-0.88164 -0.0642201 0.00213009
-0.880392 -0.0645029 0.00214658
-0.879145 -0.0647904 0.00216324
-0.877899 -0.0650827 0.00218005
-0.876643 -0.0653821 0.0021972
-0.875393 -0.065685 0.00221445
-0.874145 -0.0659931 0.00223201
-0.872898 -0.0663065 0.00224986
-0.871652 -0.0666251 0.00226786
-0.870394 -0.0669521 0.00228634
-0.869144 -0.0672827 0.00230503
-0.867895 -0.067619 0.00232393
-0.866648 -0.067961 0.0023431
-0.865402 -0.0683086 0.00236246
-0.864142 -0.0686662 0.00238227
-0.863745 -0.0687809 0.00238859
-0.863348 -0.0688962 0.00239494
-0.862951 -0.0690121 0.00240132
-0.862554 -0.0691286 0.0024077
-0.862179 -0.0692396 0.00241377
-0.86132 -0.0694945 0.00242767
-0.860463 -0.0697523 0.00244167
-0.859606 -0.0700129 0.00245578
-0.858751 -0.0702766 0.00247006
-0.857887 -0.0705459 0.00248467
-0.856635 -0.0709406 0.00250599
-0.855386 -0.071342 0.00252767
-0.854138 -0.0717502 0.00254971
-0.852893 -0.072165 0.00257194
-0.851628 -0.0725934 0.00259493
-0.850376 -0.0730244 0.00261811
-0.849127 -0.0734627 0.00264157
-0.84788 -0.0739083 0.00266531
-0.846636 -0.0743605 0.0026893
-0.845368 -0.074829 0.00271404
-0.844976 -0.0749765 0.0027218
-0.844583 -0.0751248 0.0027296
-0.844191 -0.0752737 0.00273743
-0.8438 -0.0754234 0.00274528
-0.843427 -0.0755665 0.00275276
-0.842563 -0.0759 0.00277017
-0.841701 -0.076237 0.00278771
-0.84084 -0.0765775 0.00280539
-0.83998 -0.0769215 0.00282329
-0.839108 -0.0772744 0.00284164
-0.837855 -0.0777869 0.00286817
-0.836605 -0.0783073 0.00289509
-0.835358 -0.0788356 0.00292242
-0.834115 -0.0793712 0.00295011
-0.832842 -0.0799276 0.00297889
-0.831987 -0.0803069 0.0029985
-0.831134 -0.08069 0.00301821
-0.830282 -0.0810766 0.00303807
-0.829432 -0.0814665 0.00305811
-0.82866 -0.0818243 0.0030765
-0.82824 -0.0820202 0.00308655
-0.827822 -0.0822171 0.00309662
-0.827403 -0.0824147 0.00310672
-0.826985 -0.0826132 0.00311685
-0.826563 -0.0828144 0.00312711
-0.8253 -0.0834199 0.00315804
-0.82404 -0.0840332 0.00318924
-0.822784 -0.0846541 0.00322075
-0.821532 -0.0852822 0.00325256
-0.820245 -0.0859354 0.00328546
-0.819357 -0.0863913 0.00330836
-0.818472 -0.086851 0.00333149
-0.817588 -0.0873143 0.00335482
-0.816706 -0.0877805 0.00337825
-0.815891 -0.088215 0.00340006
-0.815498 -0.0884262 0.00341065
-0.815105 -0.0886379 0.00342127
-0.814712 -0.0888504 0.00343193
-0.81432 -0.0890634 0.00344262
-0.813924 -0.0892789 0.00345342
-0.812664 -0.089968 0.00348789
-0.811407 -0.0906636 0.00352269
-0.810153 -0.0913658 0.00355781
-0.808903 -0.0920734 0.00359316
-0.807621 -0.0928049 0.00362973
-0.807037 -0.0931412 0.00364656
-0.806453 -0.0934788 0.0036634
-0.80587 -0.0938176 0.00368026
-0.805287 -0.0941571 0.00369716
-0.804724 -0.0944865 0.00371354
-0.80404 -0.0948875 0.00373348
-0.803357 -0.0952898 0.00375348
-0.802674 -0.0956936 0.00377354
-0.801993 -0.0960988 0.00379365
-0.801304 -0.0965095 0.00381411
-0.80004 -0.0972644 0.00385186
-0.798778 -0.0980231 0.00388972
-0.797519 -0.0987858 0.00392761
-0.796261 -0.0995503 0.0039655
-0.794984 -0.100329 0.00400408
-0.794834 -0.100421 0.0040086
-0.794685 -0.100512 0.00401314
-0.794535 -0.100604 0.00401768
-0.794386 -0.100695 0.00402222
-0.794237 -0.100787 0.00402674
-0.793124 -0.101469 0.00406057
-0.792012 -0.102153 0.00409451
-0.790901 -0.102838 0.00412848
-0.789791 -0.103525 0.00416244
-0.788673 -0.104218 0.00419657
-0.78775 -0.104789 0.00422468
-0.786827 -0.105362 0.00425286
-0.785905 -0.105935 0.00428116
-0.784982 -0.106508 0.00430948
-0.784066 -0.107077 0.00433758
-0.783722 -0.10729 0.00434815
-0.783377 -0.107504 0.00435871
-0.783032 -0.107717 0.00436926
-0.782688 -0.107931 0.00437981
-0.782343 -0.108144 0.00439035
-0.781076 -0.108928 0.00442903
-0.779808 -0.109712 0.0044678
-0.77854 -0.110495 0.00450651
-0.77727 -0.111275 0.00454503
-0.776006 -0.11205 0.00458324
-0.775566 -0.112318 0.0045965
-0.775126 -0.112585 0.00460974
-0.774686 -0.112853 0.00462297
-0.774246 -0.11312 0.00463616
-0.773802 -0.113389 0.00464944
-0.772981 -0.113884 0.00467387
-0.772159 -0.114379 0.00469827
-0.771337 -0.114872 0.00472263
-0.770514 -0.115364 0.00474697
-0.769697 -0.115851 0.00477108
-0.768434 -0.116599 0.00480828
-0.767169 -0.117343 0.00484532
-0.765902 -0.118084 0.0048821
-0.764632 -0.118821 0.00491859
-0.763382 -0.11954 0.00495417
-0.763338 -0.119565 0.00495541
-0.763294 -0.11959 0.00495665
-0.76325 -0.119615 0.00495789
-0.763207 -0.119639 0.00495913
-0.763163 -0.119664 0.00496037
-0.761944 -0.120358 0.00499493
-0.760723 -0.121046 0.00502947
-0.759499 -0.121731 0.00506365
-0.758272 -0.12241 0.00509754
-0.757069 -0.123069 0.00513041
-0.755999 -0.123649 0.00515941
-0.754927 -0.124225 0.00518838
-0.753853 -0.124797 0.0052171
-0.752776 -0.125364 0.00524559
-0.751619 -0.125967 0.00527595
-0.751444 -0.126058 0.00528052
-0.751268 -0.126148 0.00528508
-0.751092 -0.126239 0.00528964
-0.750916 -0.126329 0.00529418
-0.750741 -0.126419 0.00529871
-0.749478 -0.127064 0.00533129
-0.748211 -0.127704 0.00536373
-0.746941 -0.128336 0.00539578
-0.745667 -0.128962 0.00542745
-0.744423 -0.129564 0.00545796
-0.743292 -0.130105 0.00548549
-0.742157 -0.13064 0.00551286
-0.74102 -0.131169 0.00553995
-0.73988 -0.131692 0.00556674
-0.738614 -0.132265 0.00559607
-0.738511 -0.132311 0.00559844
-0.738407 -0.132357 0.00560081
-0.738303 -0.132404 0.00560318
-0.738199 -0.13245 0.00560556
-0.738095 -0.132496 0.00560793
-0.736839 -0.133052 0.00563662
-0.735579 -0.133602 0.00566508
-0.734315 -0.134144 0.00569318
-0.733049 -0.134678 0.00572092
-0.731811 -0.135191 0.0057476
-0.730549 -0.135705 0.00577449
-0.729284 -0.136212 0.0058011
-0.728016 -0.136711 0.00582734
-0.726745 -0.137202 0.00585324
-0.725501 -0.137674 0.0058782
-0.725036 -0.137847 0.0058874
-0.724571 -0.138019 0.00589659
-0.724106 -0.138189 0.00590573
-0.723641 -0.138359 0.00591482
-0.723146 -0.138538 0.00592441
-0.722342 -0.138827 0.00593987
-0.721538 -0.139113 0.00595522
-0.720732 -0.139396 0.00597044
-0.719925 -0.139675 0.00598552
-0.719128 -0.139948 0.00600026
-0.71787 -0.140372 0.00602334
-0.71661 -0.140789 0.00604616
-0.715348 -0.141199 0.00606865
-0.714082 -0.1416 0.00609082
-0.712839 -0.141986 0.00611222
-0.711579 -0.142369 0.00613359
-0.710317 -0.142745 0.00615468
-0.709053 -0.143113 0.00617545
-0.707786 -0.143474 0.00619593
-0.706539 -0.143821 0.00621577
-0.70564 -0.144065 0.00622984
-0.70474 -0.144306 0.00624379
-0.703839 -0.144544 0.00625759
-0.702938 -0.144778 0.00627124
-0.701884 -0.145046 0.006287
-0.701552 -0.145129 0.00629191
-0.701219 -0.145212 0.0062968
-0.700886 -0.145294 0.00630166
-0.700553 -0.145376 0.00630651
-0.700221 -0.145456 0.00631132
-0.700123 -0.14548 0.00631274
-0.700025 -0.145504 0.00631415
-0.699926 -0.145528 0.00631557
-0.699828 -0.145551 0.00631698
-0.699729 -0.145575 0.0063184
-0.698563 -0.145855 0.00633512
-0.697396 -0.146128 0.00635161
-0.696227 -0.146396 0.00636786
-0.695057 -0.146659 0.00638387
-0.693898 -0.146912 0.00639946
-0.692637 -0.147181 0.00641615
-0.691374 -0.147444 0.00643257
-0.69011 -0.147701 0.00644872
-0.688845 -0.147951 0.00646461
-0.687592 -0.148192 0.00648008
-0.686337 -0.148427 0.0064953
-0.685082 -0.148657 0.00651027
-0.683826 -0.14888 0.00652501
-0.682569 -0.149098 0.00653952
-0.681321 -0.149309 0.00655368
-0.68006 -0.149515 0.00656769
-0.678798 -0.149717 0.00658148
-0.677536 -0.149913 0.00659507
-0.676273 -0.150105 0.00660846
-0.675017 -0.15029 0.00662156
-0.67376 -0.15047 0.00663447
-0.672502 -0.150645 0.00664715
-0.671244 -0.150816 0.00665965
-0.669985 -0.150983 0.00667199
-0.668731 -0.151145 0.00668409
-0.667565 -0.151291 0.00669514
-0.666398 -0.151434 0.00670606
-0.665231 -0.151573 0.00671685
-0.664063 -0.15171 0.00672752
-0.662589 -0.151878 0.00674084
-0.662566 -0.15188 0.00674104
-0.662543 -0.151883 0.00674124
-0.662521 -0.151885 0.00674144
-0.662498 -0.151888 0.00674164
-0.662475 -0.15189 0.00674185
-0.661226 -0.152028 0.00675294
-0.659977 -0.152162 0.00676391
[...]
POINT_DATA 18925
 FIELD attributes 1
U 3 18925 float
6.16255 	-0.384043 	0.0380807 6.15023 	-0.385999 	0.038389 6.13788 	-0.387963 	0.0384115 6.12554 	-0.389929 	0.0384341 6.11319 	-0.391898 	0.0384569 6.10171 	-0.393733 	0.0384782 6.07785 	-0.397544 	0.0384773 6.054 	-0.401365 	0.0384763 6.03015 	-0.405197 	0.0384752 6.00631 	-0.409039 	0.0384741 5.98286 	-0.412927 	0.0386183 5.94298 	-0.41967 	0.0388048 5.90328 	-0.426249 	0.0388796 5.86359 	-0.432858 	0.0389565 5.82393 	-0.439498 	0.0390353 5.78543 	-0.446243 	0.039283 5.74324 	-0.454099 	0.0397913 5.70137 	-0.461387 	0.0398364 5.65954 	-0.468713 	0.0398829 5.61775 	-0.476077 	0.0399307 5.57722 	-0.483554 	0.0404242 5.53226 	-0.492091 	0.0408026 5.48784 	-0.500071 	0.0408531 5.44346 	-0.508094 	0.0409054 5.39966 	-0.516569 	0.0409607 5.35768 	-0.525363 	0.0412784 5.31086 	-0.53549 	0.0419729 5.26501 	-0.545176 	0.0420338 5.21824 	-0.554235 	0.0420941 5.17154 	-0.563355 	0.0421566 5.12668 	-0.572577 	0.0428326 5.07619 	-0.583265 	0.043328 5.0265 	-0.593164 	0.0433944 4.97748 	-0.603522 	0.0434652 4.93034 	-0.615129 	0.0435437 4.88401 	-0.625865 	0.0439423 4.83141 	-0.638438 	0.0449045 4.78129 	-0.650977 	0.0449895 4.73106 	-0.663485 	0.0450774 4.67902 	-0.674942 	0.0451635 4.62963 	-0.68645 	0.0460866 4.57263 	-0.700056 	0.0467382 4.51785 	-0.713425 	0.0468372 4.46514 	-0.727972 	0.0469458 4.41261 	-0.742651 	0.047059 4.3449 	-0.759236 	0.0480703 4.32404 	-0.765968 	0.0481041 4.30131 	-0.772889 	0.0481591 4.27418 	-0.780769 	0.0482268 4.2475 	-0.788272 	0.0484307 4.22108 	-0.795485 	0.0487546 4.19169 	-0.803676 	0.0492247 4.16441 	-0.811678 	0.0492348 4.13721 	-0.819718 	0.0492428 4.1101 	-0.827794 	0.0495684 4.08312 	-0.835825 	0.0500821 4.07653 	-0.837739 	0.0501485 4.07031 	-0.839607 	0.0502973 4.0641 	-0.841476 	0.0504462 4.05789 	-0.843348 	0.0505953 4.05191 	-0.845154 	0.0507392 4.03018 	-0.851707 	0.0510442 4.00847 	-0.858292 	0.0510715 3.9868 	-0.864904 	0.0510991 3.96518 	-0.871544 	0.051127 3.94457 	-0.878014 	0.0514669 3.91578 	-0.887316 	0.0517473 3.88738 	-0.896169 	0.051914 3.8591 	-0.905043 	0.052077 3.83199 	-0.913729 	0.052313 3.80551 	-0.922375 	0.0525439 3.77631 	-0.932136 	0.0531299 3.74758 	-0.941865 	0.0536179 3.71985 	-0.951254 	0.0537733 3.69306 	-0.960239 	0.054244 3.66648 	-0.969293 	0.0548074 3.63691 	-0.979478 	0.0550388 3.6088 	-0.989426 	0.0554678 3.58176 	-0.999217 	0.0556719 3.55486 	-1.00906 	0.0558795 3.52804 	-1.01873 	0.0561258 3.5186 	-1.02212 	0.0563326 3.50986 	-1.02534 	0.0563729 3.50123 	-1.02854 	0.0563932 3.49261 	-1.03175 	0.0564135 3.48445 	-1.0348 	0.0564329 3.46564 	-1.04188 	0.0565941 3.44689 	-1.04898 	0.0567574 3.42825 	-1.05612 	0.0572193 3.40993 	-1.0632 	0.0576874 3.39289 	-1.06991 	0.0577924 3.36499 	-1.08115 	0.0583744 3.33749 	-1.0921 	0.0589704 3.3103 	-1.10279 	0.0590893 3.28593 	-1.1127 	0.0597221 3.26137 	-1.12282 	0.0603827 3.23366 	-1.13443 	0.0607144 3.20688 	-1.14585 	0.0610577 3.18247 	-1.15658 	0.0613727 3.15826 	-1.16737 	0.0616482 3.13417 	-1.17779 	0.0619287 3.12561 	-1.18152 	0.062164 3.1177 	-1.18503 	0.0622712 3.11015 	-1.18841 	0.0623064 3.10263 	-1.1918 	0.0623417 3.0955 	-1.19503 	0.0623754 3.07862 	-1.20279 	0.0625948 3.06187 	-1.21059 	0.0628758 3.04526 	-1.21842 	0.0634038 3.0296 	-1.22594 	0.0637487 3.01505 	-1.23309 	0.0638189 2.99072 	-1.24515 	0.0644257 2.96667 	-1.25728 	0.0650359 2.94455 	-1.26836 	0.0655737 2.92474 	-1.27842 	0.0661122 2.90466 	-1.28881 	0.0666363 2.88866 	-1.29702 	0.0667502 2.87399 	-1.30478 	0.0670115 2.86084 	-1.312 	0.0674458 2.8478 	-1.31924 	0.0677866 2.83602 	-1.32587 	0.0679898 2.82936 	-1.32966 	0.0680663 2.82273 	-1.33346 	0.0681431 2.81613 	-1.33727 	0.0682202 2.81032 	-1.34078 	0.0683981 2.80499 	-1.3441 	0.068648 2.78516 	-1.35587 	0.0689984 2.76582 	-1.36728 	0.0693659 2.74755 	-1.37804 	0.0697941 2.73283 	-1.38709 	0.0698737 2.71795 	-1.39648 	0.0701187 2.70513 	-1.40447 	0.0706784 2.69335 	-1.41198 	0.0711142 2.68363 	-1.41844 	0.0712762 2.67407 	-1.42494 	0.0715168 2.66536 	-1.43097 	0.0717784 2.66093 	-1.4342 	0.0719514 2.65652 	-1.43744 	0.072125 2.65215 	-1.44068 	0.0722991 2.64864 	-1.44343 	0.0723375 2.64542 	-1.44604 	0.0723294 2.63187 	-1.45649 	0.0728572 2.61865 	-1.4669 	0.0733741 2.60713 	-1.47566 	0.0737255 2.59847 	-1.4827 	0.0741286 2.58979 	-1.48999 	0.0745454 2.58418 	-1.49423 	0.0745489 2.57901 	-1.49823 	0.074571 2.57572 	-1.50099 	0.0746872 2.57248 	-1.50375 	0.0748039 2.56937 	-1.50644 	0.0749173 2.56469 	-1.51082 	0.0750822 2.56004 	-1.51521 	0.0752616 2.55545 	-1.51962 	0.0754458 2.5534 	-1.52197 	0.0758125 2.55177 	-1.52401 	0.0762156 2.54377 	-1.52971 	0.0763284 2.53482 	-1.53521 	0.0762665 2.53584 	-1.54095 	0.0763605 2.5352 	-1.54622 	0.076602 2.53432 	-1.551 	0.0767272 2.53375 	-1.55168 	0.0768025 2.53322 	-1.55234 	0.0768752 2.53314 	-1.55265 	0.0769209 2.53306 	-1.55297 	0.0769666 2.53298 	-1.55329 	0.0770121 2.53196 	-1.55742 	0.0772843 2.53107 	-1.56158 	0.077391 2.53028 	-1.56577 	0.0774091 2.53021 	-1.56651 	0.0772281 2.53021 	-1.5669 	0.0770243 2.52934 	-1.56957 	0.0772552 2.5288 	-1.57199 	0.0776 2.53093 	-1.57162 	0.0776863 2.53306 	-1.57125 	0.077708 2.53515 	-1.57088 	0.0777293 2.53551 	-1.57129 	0.0777006 2.53587 	-1.57171 	0.0776718 2.53623 	-1.57212 	0.0776429 2.53776 	-1.5716 	0.0775692 2.5394 	-1.57098 	0.0774907 2.54218 	-1.5716 	0.0777535 2.54477 	-1.57028 	0.0776751 2.5492 	-1.568 	0.0773554 2.55609 	-1.56536 	0.0772423 2.56262 	-1.56063 	0.0772878 2.56383 	-1.56002 	0.0772144 2.56516 	-1.55927 	0.0771298 2.56777 	-1.55728 	0.0769427 2.57036 	-1.55528 	0.076755 2.57295 	-1.55325 	0.0765649 2.57675 	-1.55092 	0.076519 2.58049 	-1.54856 	0.0764718 2.58417 	-1.54619 	0.0764235 2.58967 	-1.54158 	0.07644 2.59526 	-1.5367 	0.0764338 2.60173 	-1.53222 	0.076186 2.60983 	-1.5257 	0.0757439 2.61811 	-1.51865 	0.0752532 2.62707 	-1.51049 	0.0747358 2.63566 	-1.50166 	0.0747171 2.63588 	-1.50143 	0.0747206 2.63612 	-1.50117 	0.0747267 2.63644 	-1.50079 	0.074745 2.63677 	-1.50042 	0.0747633 2.63709 	-1.50005 	0.0747816 2.64494 	-1.49159 	0.0748038 2.65272 	-1.48292 	0.0740889 2.66098 	-1.47299 	0.0735016 2.66892 	-1.46296 	0.0729104 2.6778 	-1.45085 	0.0725771 2.68484 	-1.44307 	0.072545 2.69112 	-1.43233 	0.0719524 2.70061 	-1.42325 	0.0714673 2.70906 	-1.41248 	0.0710952 2.71768 	-1.40059 	0.0707107 2.71879 	-1.399 	0.0705965 2.71989 	-1.39741 	0.0704823 2.72099 	-1.39582 	0.070368 2.72221 	-1.39391 	0.0702938 2.72348 	-1.39186 	0.0702366 2.73259 	-1.37953 	0.0699777 2.73926 	-1.36398 	0.0691245 2.74551 	-1.34833 	0.068264 2.75614 	-1.33514 	0.0676187 2.76478 	-1.31973 	0.0672382 2.77242 	-1.30736 	0.0668924 2.78036 	-1.29368 	0.0662185 2.78795 	-1.2799 	0.0655388 2.79531 	-1.26578 	0.0647863 2.8033 	-1.24952 	0.0639717 2.80383 	-1.24825 	0.0640073 2.80435 	-1.24699 	0.064043 2.80488 	-1.24572 	0.0640786 2.80543 	-1.24434 	0.0640834 2.80602 	-1.24288 	0.0640628 2.81353 	-1.22681 	0.0635508 2.82009 	-1.20939 	0.0627215 2.82617 	-1.19185 	0.061884 2.83177 	-1.17419 	0.0610385 2.83678 	-1.15608 	0.0604446 2.84186 	-1.13823 	0.0597936 2.84547 	-1.11904 	0.0588698 2.85303 	-1.10206 	0.058134 2.86009 	-1.08494 	0.0573902 2.86532 	-1.06693 	0.0567582 2.86731 	-1.0607 	0.0566832 2.86923 	-1.05407 	0.0563912 2.87109 	-1.04737 	0.0560654 2.87288 	-1.04056 	0.0556934 2.8747 	-1.03332 	0.0552979 2.87693 	-1.02163 	0.0548844 2.87841 	-1.00948 	0.0543712 2.87947 	-0.997119 	0.0538146 2.88107 	-0.985078 	0.0532847 2.88333 	-0.973406 	0.0529053 2.88748 	-0.955575 	0.0522864 2.89033 	-0.937087 	0.0514995 2.89149 	-0.917856 	0.0506551 2.89216 	-0.8985 	0.0498031 2.89221 	-0.879254 	0.0490581 2.89212 	-0.860495 	0.0483087 2.89175 	-0.841668 	0.0475078 2.89373 	-0.823874 	0.0467837 2.89523 	-0.805962 	0.0460527 2.89597 	-0.788107 	0.0453471 2.89645 	-0.775781 	0.044886 2.89664 	-0.763369 	0.0443731 2.8966 	-0.7509 	0.0438571 2.89632 	-0.738375 	0.043338 2.89572 	-0.723685 	0.0427135 2.89505 	-0.718897 	0.042521 2.89429 	-0.714074 	0.0423184 2.89349 	-0.709246 	0.0421154 2.89267 	-0.70441 	0.041912 2.89238 	-0.699862 	0.0417319 2.8923 	-0.698587 	0.0416831 2.89222 	-0.697312 	0.0416314 2.89214 	-0.696037 	0.0415797 2.89205 	-0.694761 	0.041528 2.89196 	-0.69347 	0.0414757 2.88983 	-0.677798 	0.0408112 2.88735 	-0.662041 	0.0401416 2.88452 	-0.646202 	0.0394673 2.88134 	-0.63028 	0.0387883 2.8778 	-0.61447 	0.038077 2.87422 	-0.598613 	0.0373742 2.87013 	-0.582661 	0.036678 2.86566 	-0.566623 	0.0359771 2.86219 	-0.551053 	0.0353401 2.85812 	-0.535569 	0.0346766 2.85445 	-0.521484 	0.0340288 2.85023 	-0.507371 	0.0334446 2.84547 	-0.493139 	0.0328463 2.83976 	-0.478706 	0.0322146 2.83357 	-0.464418 	0.0314894 2.82823 	-0.451924 	0.0309218 2.82257 	-0.439453 	0.0303833 2.81716 	-0.426824 	0.0298619 2.81144 	-0.41413 	0.0293367 2.80493 	-0.401607 	0.0287875 2.79967 	-0.390736 	0.0282209 2.79383 	-0.379934 	0.02777 2.78772 	-0.369078 	0.0273159 2.78134 	-0.358167 	0.0268586 2.77425 	-0.347705 	0.0262729 2.76899 	-0.33923 	0.0259098 2.76336 	-0.330679 	0.0255547 2.75743 	-0.322192 	0.0251995 2.75127 	-0.313708 	0.0248431 2.74324 	-0.30295 	0.0243903 2.7431 	-0.302779 	0.0243838 2.74296 	-0.302608 	0.0243772 2.74283 	-0.302436 	0.0243707 2.74269 	-0.302265 	0.0243641 2.74255 	-0.302098 	0.0243541 2.73621 	-0.294412 	0.0240313 2.72968 	-0.286708 	0.0237071 2.72297 	-0.278973 	0.0233812 2.71605 	-0.271265 	0.0230559 2.70861 	-0.26363 	0.0227335 2.7028 	-0.256839 	0.0223312 2.69653 	-0.250519 	0.0220679 2.69012 	-0.244177 	0.021803 2.68355 	-0.237811 	0.0215367 2.67664 	-0.231586 	0.0211459 2.67103 	-0.226004 	0.0209292 2.66521 	-0.220868 	0.0207153 2.65926 	-0.215712 	0.0205003 2.65312 	-0.210311 	0.0202775 2.64636 	-0.204766 	0.0200657 2.64109 	-0.199674 	0.0197404 2.63552 	-0.195055 	0.0195527 2.63001 	-0.190763 	0.0193746 2.6244 	-0.186458 	0.0191957 2.61847 	-0.182286 	0.0189013 2.61363 	-0.17831 	0.018763 2.60873 	-0.174821 	0.0186185 2.60375 	-0.171322 	0.0184733 2.59819 	-0.167077 	0.0183029 2.59233 	-0.163289 	0.0181729 2.5878 	-0.159598 	0.0179133 2.58278 	-0.156027 	0.0177704 2.57809 	-0.152947 	0.017644 2.57344 	-0.149992 	0.0175215 2.56848 	-0.147169 	0.0172961 2.56436 	-0.14426 	0.0172087 2.5603 	-0.141832 	0.0171086 2.55587 	-0.139061 	0.0169961 2.55107 	-0.135969 	0.0168721 2.5461 	-0.133365 	0.0167959 2.54227 	-0.130633 	0.0165864 2.53798 	-0.12803 	0.0164819 2.53374 	-0.125527 	0.0163808 2.52988 	-0.12344 	0.0162943 2.52575 	-0.121488 	0.0161168 2.52226 	-0.119293 	0.0160616 2.51888 	-0.117548 	0.0159896 2.51485 	-0.115277 	0.0158983 2.51076 	-0.113002 	0.0158066 2.50656 	-0.111182 	0.0157648 2.50335 	-0.109108 	0.0155922 2.49968 	-0.107167 	0.015514 2.49597 	-0.105223 	0.0154354 2.49261 	-0.10358 	0.0153678 2.48915 	-0.102196 	0.0152238 2.48615 	-0.100489 	0.0151896 2.48308 	-0.0990196 	0.0151289 2.47963 	-0.097308 	0.0150591 2.47614 	-0.0955932 	0.0149889 2.47258 	-0.0942964 	0.0149678 2.46987 	-0.0926792 	0.0148221 2.46672 	-0.091198 	0.0147607 2.46355 	-0.0897141 	0.0146991 2.46049 	-0.088331 	0.0146412 2.45756 	-0.0873249 	0.0145199 2.45498 	-0.0859609 	0.0144988 2.45215 	-0.0847123 	0.0144462 2.44919 	-0.0833923 	0.0143908 2.44619 	-0.0820702 	0.0143351 2.44314 	-0.0811294 	0.014327 2.44085 	-0.0798382 	0.0142015 2.43814 	-0.0786825 	0.0141525 2.4354 	-0.0775251 	0.0141033 2.43264 	-0.0763658 	0.0140539 2.43011 	-0.0756044 	0.0139493 2.4278 	-0.0744581 	0.0139361 2.42526 	-0.0734199 	0.0138914 2.42269 	-0.0723803 	0.0138466 2.4201 	-0.0713534 	0.0138035 2.41746 	-0.0706454 	0.0138016 2.41547 	-0.0696091 	0.0137008 2.4131 	-0.0686946 	0.0136633 2.4107 	-0.0677789 	0.0136257 2.40829 	-0.0668618 	0.0135878 2.406 	-0.0661814 	0.013503 2.4039 	-0.0652615 	0.0134797 2.40169 	-0.0644396 	0.0134443 2.39945 	-0.0636166 	0.0134088 2.3972 	-0.0627925 	0.0133732 2.3949 	-0.0621402 	0.0133608 2.39306 	-0.0613287 	0.0132956 2.39098 	-0.0605875 	0.0132647 2.38889 	-0.0598453 	0.0132336 2.38678 	-0.0591022 	0.0132024 2.38473 	-0.0584721 	0.0131341 2.38284 	-0.0577469 	0.013099 2.38089 	-0.0570754 	0.0130696 2.37893 	-0.056403 	0.0130402 2.37695 	-0.0557299 	0.0130106 2.37495 	-0.055128 	0.0129908 2.37323 	-0.0544871 	0.0129501 2.3714 	-0.0538769 	0.0129235 2.36956 	-0.0532659 	0.0128968 2.36771 	-0.0526543 	0.0128699 2.36585 	-0.0520705 	0.0128143 2.36414 	-0.0514936 	0.0127707 2.36242 	-0.0509366 	0.0127449 2.36069 	-0.050379 	0.0127191 2.35894 	-0.0498208 	0.0126932 2.35718 	-0.0492642 	0.0126675 2.35706 	-0.049223 	0.0126652 2.35693 	-0.0491828 	0.0126633 2.35681 	-0.0491426 	0.0126615 2.35668 	-0.0491023 	0.0126596 2.35655 	-0.0490618 	0.0126578 2.35502 	-0.0485899 	0.0126354 2.35348 	-0.0481177 	0.012613 2.35193 	-0.0476449 	0.0125906 2.35037 	-0.0471713 	0.0125659 2.34875 	-0.046703 	0.0125271 2.34718 	-0.0462052 	0.0124805 2.3456 	-0.0457342 	0.0124576 2.34402 	-0.045263 	0.0124352 2.34242 	-0.0447913 	0.0124128 2.34079 	-0.0443391 	0.0123811 2.33928 	-0.043862 	0.0123639 2.33779 	-0.0434283 	0.0123427 2.33629 	-0.0429943 	0.0123214 2.33478 	-0.0425595 	0.0122988 2.33315 	-0.0421492 	0.0122716 2.33176 	-0.0416852 	0.012225 2.33035 	-0.0412846 	0.012204 2.32893 	-0.0408839 	0.0121844 2.32751 	-0.040483 	0.0121647 2.32603 	-0.0401176 	0.0121293 2.32464 	-0.0396715 	0.012118 2.32331 	-0.0393008 	0.0120994 2.32196 	-0.0389298 	0.0120806 2.32061 	-0.038558 	0.01206 2.31908 	-0.0382257 	0.0120438 2.31786 	-0.0377925 	0.0119974 2.31659 	-0.0374478 	0.0119775 2.31531 	-0.0371033 	0.0119594 2.31403 	-0.0367585 	0.0119413 2.31268 	-0.0364613 	0.0119024 2.31141 	-0.0360435 	0.011895 2.31021 	-0.0357231 	0.0118771 2.30899 	-0.0354026 	0.0118592 2.30777 	-0.0350812 	0.011839 2.30633 	-0.0348104 	0.0118297 2.30525 	-0.0344056 	0.0117831 2.3041 	-0.0341066 	0.0117637 2.30295 	-0.0338079 	0.0117465 2.30179 	-0.0335091 	0.0117292 2.30055 	-0.033267 	0.011688 2.29938 	-0.0328758 	0.0116834 2.29829 	-0.0325973 	0.0116668 2.29719 	-0.0323186 	0.0116502 2.29609 	-0.032039 	0.0116309 2.29472 	-0.0318182 	0.0116268 2.29377 	-0.0314401 	0.0115807 2.29273 	-0.031179 	0.0115621 2.29168 	-0.0309184 	0.0115461 2.29063 	-0.0306576 	0.01153 2.28949 	-0.0304603 	0.0114875 2.28841 	-0.0300941 	0.0114853 2.28742 	-0.0298499 	0.0114695 2.28642 	-0.0296057 	0.0114536 2.28541 	-0.0293606 	0.011435 2.28411 	-0.0291802 	0.0114345 2.28328 	-0.0288265 	0.0113892 2.28233 	-0.0285966 	0.0113715 2.28138 	-0.0283673 	0.0113564 2.28042 	-0.0281378 	0.0113413 2.27938 	-0.0279768 	0.011299 2.27837 	-0.0276333 	0.0112996 2.27747 	-0.0274179 	0.0112853 2.27656 	-0.0272022 	0.011271 2.27564 	-0.0269867 	0.0112542 2.2744 	-0.0268384 	0.0112569 2.27366 	-0.0265118 	0.0112149 2.2728 	-0.0263038 	0.0111977 2.27193 	-0.0261009 	0.011184 2.27105 	-0.0259026 	0.0111684 2.27009 	-0.0257664 	0.0111276 2.26917 	-0.025456 	0.011129 2.26833 	-0.0252533 	0.0111168 2.2675 	-0.025062 	0.0111032 2.26662 	-0.024878 	0.0110895 2.26547 	-0.024749 	0.0110906 2.26481 	-0.0244555 	0.0110513 2.26404 	-0.0242571 	0.0110321 2.26324 	-0.0240763 	0.0110186 2.26242 	-0.0239067 	0.0110005 2.26155 	-0.0237878 	0.010962 2.2607 	-0.0235075 	0.0109623 2.25992 	-0.0233138 	0.0109519 2.25915 	-0.0231426 	0.0109387 2.25832 	-0.0229845 	0.0109273 2.25724 	-0.0228712 	0.0109278 2.25666 	-0.0226056 	0.0108917 2.25596 	-0.0224164 	0.0108718 2.25523 	-0.022254 	0.0108591 2.25448 	-0.0221079 	0.0108399 2.25367 	-0.0220032 	0.0108042 2.25289 	-0.0217489 	0.0108048 2.25216 	-0.0215638 	0.0107963 2.25146 	-0.0214097 	0.0107839 2.25065 	-0.0212732 	0.0107749 2.24965 	-0.0211729 	0.0107751 2.24913 	-0.020932 	0.0107418 2.24851 	-0.0207518 	0.0107216 2.24783 	-0.0206054 	0.0107097 2.24713 	-0.0204795 	0.01069 2.24639 	-0.0203874 	0.0106575 2.24566 	-0.0201562 	0.0106584 2.24499 	-0.0199798 	0.0106518 2.24434 	-0.0198405 	0.0106401 2.24356 	-0.0197223 	0.0106328 2.24262 	-0.019633 	0.0106326 2.24215 	-0.0194135 	0.0106023 2.2416 	-0.0192416 	0.0105818 2.24098 	-0.0191087 	0.0105698 2.24032 	-0.0189992 	0.0105486 2.23963 	-0.0189167 	0.0105167 2.23897 	-0.018705 	0.0105171 2.23833 	-0.0185365 	0.010511 2.23773 	-0.0184098 	0.0104987 2.23698 	-0.0183068 	0.0104914 2.23609 	-0.0182269 	0.0104893 2.23567 	-0.0180258 	0.01046 2.23518 	-0.0178622 	0.0104385 2.2346 	-0.0177413 	0.0104262 2.23399 	-0.0176465 	0.0104038 2.23335 	-0.017573 	0.010373 2.23273 	-0.0173789 	0.0103722 2.23214 	-0.0172184 	0.0103665 2.23158 	-0.0171033 	0.0103544 2.23085 	-0.0170138 	0.0103477 2.23001 	-0.0169424 	0.0103449 2.22964 	-0.0167584 	0.0103172 2.2292 	-0.0166031 	0.0102955 2.22866 	-0.0164933 	0.0102834 2.22809 	-0.0164111 	0.0102603 2.2275 	-0.0163455 	0.0102305 2.22692 	-0.0161675 	0.0102291 2.22637 	-0.0160161 	0.0102237 2.22585 	-0.0159112 	0.0102115 2.22515 	-0.0158322 	0.0102047 2.22435 	-0.015768 	0.0102011 2.22402 	-0.015599 	0.0101745 2.22363 	-0.0154525 	0.0101528 2.22313 	-0.015352 	0.0101409 2.2226 	-0.0152794 	0.0101185 2.22204 	-0.0152207 	0.0100909 2.22151 	-0.0150567 	0.0100899 2.22099 	-0.0149143 	0.0100856 2.22051 	-0.0148183 	0.0100742 2.21983 	-0.0147475 	0.0100684 2.21907 	-0.0146898 	0.010065 2.21878 	-0.0145341 	0.0100411 2.21843 	-0.014396 	0.010021 2.21796 	-0.014304 	0.0100099 2.21746 	-0.0142399 	0.00998755 2.21695 	-0.0141869 	0.00996069 2.21645 	-0.014036 	0.00996001 2.21597 	-0.0139022 	0.00995644 2.21552 	-0.0138141 	0.00994518 2.21486 	-0.0137506 	0.0099386 2.21414 	-0.0136982 	0.00993388 2.21388 	-0.0135544 	0.00991059 2.21357 	-0.0134238 	0.00989014 2.21314 	-0.0133391 	0.00987872 2.21267 	-0.0132819 	0.00985605 2.21218 	-0.0132336 	0.00982975 2.21172 	-0.0130934 	0.00982787 2.21127 	-0.0129666 	0.00982385 2.21085 	-0.0128851 	0.00981262 2.21021 	-0.0128276 	0.0098061 2.20953 	-0.0127793 	0.0098011 2.2093 	-0.0126457 	0.00977917 2.20903 	-0.0125216 	0.00975935 2.20862 	-0.012443 	0.00974839 2.20818 	-0.0123916 	0.00972637 2.20773 	-0.0123469 	0.00970158 2.2073 	-0.0122164 	0.0096999 2.20687 	-0.012096 	0.00969654 2.20648 	-0.0120202 	0.00968575 2.20586 	-0.011968 	0.00967966 2.2052 	-0.0119234 	0.00967478 2.20501 	-0.0117993 	0.00965417 2.20477 	-0.0116816 	0.00963504 2.20439 	-0.0116086 	0.00962459 2.20398 	-0.0115629 	0.00960378 2.20355 	-0.0115222 	0.00958105 2.20315 	-0.011401 	0.00957974 2.20275 	-0.0112869 	0.00957716 2.20238 	-0.0112164 	0.00956688 2.20178 	-0.0111689 	0.00956105 2.20115 	-0.0111273 	0.00955609 2.20098 	-0.0110118 	0.0095371 2.20078 	-0.0108999 	0.00951892 2.20042 	-0.0108316 	0.00950822 2.20003 	-0.0107899 	0.0094864 2.19963 	-0.0107515 	0.00946315 2.19925 	-0.010638 	0.00946136 2.19888 	-0.0105291 	0.00945866 2.19853 	-0.0104628 	0.00944747 2.19794 	-0.0104198 	0.00944033 2.19733 	-0.010381 	0.00943377 2.19718 	-0.010273 	0.00941468 2.19701 	-0.010167 	0.00939606 2.19668 	-0.0101028 	0.00938472 2.1963 	-0.0100655 	0.00936247 2.19593 	-0.0100302 	0.00933936 2.19557 	-0.00992403 	0.00933652 2.19522 	-0.00982033 	0.00933321 2.19489 	-0.00975798 	0.00932194 2.19431 	-0.00972002 	0.00931473 2.19373 	-0.00968422 	0.00930781 2.1936 	-0.00958373 	0.00928923 2.19346 	-0.00948408 	0.00927084 2.19314 	-0.00942371 	0.0092595 2.19279 	-0.00939052 	0.00923708 2.19243 	-0.00935811 	0.00921431 2.1921 	-0.00925925 	0.00921089 2.19176 	-0.00916094 	0.00920736 2.19145 	-0.00910221 	0.00919584 2.19089 	-0.00906865 	0.0091884 2.19033 	-0.00903546 	0.00918101 2.19022 	-0.0089417 	0.00916282 2.19011 	-0.00884793 	0.00914463 2.18981 	-0.00879096 	0.0091332 2.18947 	-0.00876111 	0.00911196 2.18914 	-0.00873124 	0.00909072 2.18882 	-0.00863876 	0.00908791 2.18851 	-0.00854625 	0.00908509 2.1882 	-0.00849084 	0.00907471 2.18766 	-0.00846003 	0.009068 2.18711 	-0.00842921 	0.00906129 2.18702 	-0.00834175 	0.00904509 2.18693 	-0.00825427 	0.00902889 2.18665 	-0.00820068 	0.00901754 2.18634 	-0.0081729 	0.00899649 2.18602 	-0.00814512 	0.00897543 2.18573 	-0.00805895 	0.00897317 2.18543 	-0.00797276 	0.00897089 2.18513 	-0.00792044 	0.00896095 2.1846 	-0.00789152 	0.00895316 2.18407 	-0.00786261 	0.00894537 2.184 	-0.00778069 	0.00892911 2.18393 	-0.00769876 	0.00891284 2.18367 	-0.00764801 	0.00890051 2.18337 