# vtk DataFile Version 2.0
track0
ASCII
DATASET POLYDATA
POINTS 19030 float
-1.001 -0.05 0.0011
-0.999912 -0.0500513 0.00110141
-0.998824 -0.0501031 0.00110288
-0.997737 -0.0501555 0.00110436
-0.996649 -0.0502085 0.00110584
-0.995676 -0.0502563 0.00110717
-0.994344 -0.0503225 0.001109
-0.993011 -0.0503896 0.00111084
-0.991679 -0.0504576 0.00111267
-0.990346 -0.0505264 0.00111451
-0.989013 -0.0505961 0.00111635
-0.986517 -0.0507284 0.00111984
-0.984021 -0.0508641 0.00112341
-0.981525 -0.0510034 0.00112701
-0.979029 -0.0511461 0.00113066
-0.976532 -0.0512926 0.00113435
-0.974036 -0.0514427 0.00113819
-0.97154 -0.051597 0.00114225
-0.969044 -0.0517554 0.00114635
-0.966549 -0.051918 0.00115048
-0.964051 -0.052085 0.00115464
-0.961555 -0.0522563 0.00115904
-0.959059 -0.0524326 0.00116362
-0.956563 -0.0526138 0.00116824
-0.954067 -0.0527998 0.00117291
-0.951569 -0.0529912 0.00117762
-0.949072 -0.0531879 0.0011825
-0.946576 -0.0533909 0.00118771
-0.944081 -0.0536 0.00119297
-0.941586 -0.053815 0.00119829
-0.939087 -0.0540365 0.00120367
-0.93659 -0.0542641 0.00120937
-0.934094 -0.054499 0.00121535
-0.931599 -0.0547409 0.00122139
-0.929104 -0.05499 0.00122751
-0.926604 -0.0552478 0.00123372
-0.924107 -0.0555132 0.00124015
-0.921611 -0.0557879 0.00124708
-0.919116 -0.0560721 0.00125409
-0.916622 -0.0563654 0.00126119
-0.914119 -0.0566692 0.00126842
-0.91162 -0.0569819 0.00127613
-0.909123 -0.0573058 0.00128425
-0.906627 -0.0576406 0.00129249
-0.904132 -0.0579875 0.00130085
-0.901624 -0.058349 0.00130939
-0.900376 -0.0585376 0.00131397
-0.899128 -0.0587291 0.00131857
-0.89788 -0.0589234 0.00132321
-0.896633 -0.0591207 0.00132788
-0.895381 -0.0593223 0.00133261
-0.894133 -0.0595269 0.00133747
-0.892885 -0.0597354 0.00134251
-0.891637 -0.0599478 0.00134761
-0.890391 -0.0601641 0.00135275
-0.889138 -0.0603853 0.00135798
-0.88789 -0.0606099 0.00136338
-0.886642 -0.0608388 0.00136891
-0.885395 -0.0610719 0.00137451
-0.884149 -0.0613093 0.00138015
-0.882895 -0.0615528 0.00138588
-0.881646 -0.0617997 0.00139172
-0.880399 -0.0620514 0.00139776
-0.879152 -0.0623079 0.00140383
-0.877906 -0.0625691 0.00140992
-0.876651 -0.0628373 0.00141611
-0.87659 -0.0628507 0.00141642
-0.876529 -0.062864 0.00141674
-0.876468 -0.0628774 0.00141706
-0.876406 -0.0628907 0.00141737
-0.876346 -0.062904 0.00141769
-0.875157 -0.0631642 0.00142387
-0.87397 -0.063429 0.00143029
-0.872784 -0.0636986 0.00143673
-0.871599 -0.0639731 0.00144321
-0.870404 -0.0642549 0.00144977
-0.869154 -0.0645551 0.00145686
-0.867905 -0.0648613 0.0014641
-0.866658 -0.0651732 0.00147144
-0.865412 -0.0654909 0.00147885
-0.864153 -0.0658183 0.00148644
-0.862903 -0.0661498 0.00149412
-0.861654 -0.0664879 0.0015021
-0.860407 -0.0668323 0.00151021
-0.859161 -0.0671832 0.00151841
-0.8579 -0.0675457 0.00152686
-0.856733 -0.0678872 0.00153495
-0.855569 -0.068235 0.00154318
-0.854406 -0.0685888 0.00155155
-0.853245 -0.0689485 0.00156003
-0.85228 -0.069253 0.00156717
-0.852152 -0.0692939 0.00156813
-0.852025 -0.0693349 0.00156908
-0.851897 -0.069376 0.00157004
-0.851769 -0.0694171 0.001571
-0.851642 -0.0694584 0.00157196
-0.85039 -0.0698635 0.00158139
-0.84914 -0.0702761 0.00159097
-0.847893 -0.0706961 0.00160068
-0.846649 -0.0711237 0.00161053
-0.845382 -0.0715675 0.00162071
-0.844129 -0.0720145 0.00163093
-0.84288 -0.0724697 0.00164153
-0.841633 -0.0729329 0.00165232
-0.840389 -0.0734039 0.00166324
-0.839118 -0.0738943 0.00167462
-0.83827 -0.0742273 0.00168246
-0.837424 -0.0745644 0.00169035
-0.83658 -0.0749052 0.00169836
-0.835737 -0.0752496 0.00170643
-0.834987 -0.0755595 0.00171367
-0.83456 -0.0757384 0.00171784
-0.834132 -0.0759183 0.00172202
-0.833705 -0.0760992 0.0017262
-0.833278 -0.0762811 0.00173039
-0.832848 -0.0764656 0.00173465
-0.831593 -0.0770069 0.00174719
-0.830341 -0.077557 0.0017599
-0.829094 -0.0781155 0.00177277
-0.82785 -0.0786822 0.00178579
-0.826572 -0.0792741 0.00179934
-0.825484 -0.079786 0.001811
-0.8244 -0.0803046 0.00182296
-0.823318 -0.0808295 0.00183511
-0.822239 -0.0813601 0.00184729
-0.821291 -0.0818331 0.00185805
-0.821088 -0.0819354 0.00186038
-0.820885 -0.0820379 0.00186272
-0.820682 -0.0821407 0.00186506
-0.82048 -0.0822436 0.00186742
-0.820276 -0.0823473 0.00186979
-0.819012 -0.082993 0.00188452
-0.817751 -0.083647 0.0018995
-0.816495 -0.0843089 0.00191462
-0.815243 -0.0849783 0.0019299
-0.813952 -0.0856773 0.00194594
-0.81303 -0.0861826 0.00195767
-0.812111 -0.0866923 0.00196946
-0.811194 -0.087206 0.00198127
-0.810278 -0.0877229 0.00199313
-0.809433 -0.0882043 0.00200415
-0.809071 -0.0884115 0.00200888
-0.808711 -0.0886193 0.00201362
-0.80835 -0.0888276 0.00201836
-0.80799 -0.0890364 0.00202311
-0.807627 -0.0892476 0.00202792
-0.806363 -0.089984 0.00204476
-0.805103 -0.0907268 0.00206167
-0.803847 -0.0914757 0.00207868
-0.802594 -0.0922296 0.00209584
-0.801309 -0.0930084 0.00211352
-0.800829 -0.0933013 0.00212013
-0.80035 -0.0935951 0.00212678
-0.79987 -0.0938895 0.00213347
-0.799391 -0.0941844 0.00214017
-0.798923 -0.0944731 0.00214673
-0.798136 -0.0949596 0.00215777
-0.79735 -0.0954475 0.00216884
-0.796565 -0.0959369 0.00217993
-0.795781 -0.0964277 0.00219103
-0.794989 -0.0969248 0.00220217
-0.793766 -0.0976935 0.00221927
-0.792545 -0.0984655 0.00223662
-0.791326 -0.0992405 0.00225419
-0.790108 -0.100016 0.0022718
-0.788929 -0.100769 0.00228883
-0.788876 -0.100803 0.00228959
-0.788824 -0.100836 0.00229035
-0.788771 -0.10087 0.00229111
-0.788718 -0.100904 0.00229186
-0.788665 -0.100937 0.00229262
-0.7874 -0.101746 0.0023108
-0.786136 -0.102556 0.00232896
-0.784873 -0.103367 0.00234709
-0.78361 -0.104179 0.00236535
-0.782341 -0.104993 0.00238378
-0.781691 -0.105408 0.00239324
-0.78104 -0.105824 0.00240263
-0.78039 -0.10624 0.00241196
-0.77974 -0.106655 0.0024212
-0.779086 -0.107071 0.00243041
-0.778468 -0.107464 0.0024391
-0.777849 -0.107856 0.00244783
-0.77723 -0.108249 0.00245658
-0.776611 -0.108641 0.00246537
-0.775994 -0.109031 0.00247414
-0.774731 -0.109825 0.00249209
-0.773466 -0.110619 0.00250991
-0.772201 -0.11141 0.0025276
-0.770933 -0.112197 0.00254526
-0.769678 -0.11297 0.0025626
-0.769552 -0.113048 0.00256432
-0.769425 -0.113125 0.00256604
-0.769299 -0.113202 0.00256777
-0.769172 -0.113279 0.0025695
-0.769045 -0.113357 0.00257123
-0.767909 -0.114049 0.00258675
-0.766771 -0.114737 0.00260223
-0.76563 -0.115422 0.00261765
-0.764488 -0.116104 0.00263294
-0.763364 -0.116769 0.00264771
-0.762386 -0.117341 0.00266037
-0.761406 -0.117911 0.00267302
-0.760426 -0.118478 0.00268566
-0.759442 -0.119041 0.00269837
-0.758404 -0.11963 0.00271177
-0.758135 -0.119782 0.00271519
-0.757866 -0.119933 0.00271859
-0.757596 -0.120084 0.00272197
-0.757326 -0.120234 0.00272533
-0.757058 -0.120384 0.00272866
-0.755791 -0.121088 0.00274428
-0.754521 -0.121785 0.00275978
-0.753248 -0.122477 0.00277507
-0.751972 -0.123163 0.00279039
-0.750724 -0.123822 0.00280516
-0.749907 -0.124248 0.00281467
-0.749089 -0.12467 0.00282409
-0.74827 -0.125091 0.00283338
-0.747448 -0.125507 0.00284245
-0.746569 -0.125949 0.00285198
-0.746137 -0.126164 0.00285664
-0.745704 -0.126378 0.00286132
-0.74527 -0.126592 0.00286602
-0.744836 -0.126804 0.00287074
-0.744406 -0.127014 0.0028754
-0.743143 -0.127627 0.00288903
-0.741876 -0.128232 0.00290247
-0.740606 -0.12883 0.00291577
-0.739332 -0.12942 0.00292892
-0.738089 -0.129986 0.00294151
-0.73709 -0.130432 0.00295142
-0.73609 -0.130873 0.00296121
-0.735087 -0.13131 0.00297099
-0.734082 -0.131742 0.00298085
-0.732963 -0.132215 0.00299169
-0.732728 -0.132313 0.0029939
-0.732494 -0.13241 0.00299609
-0.732259 -0.132507 0.00299826
-0.732025 -0.132604 0.00300042
-0.731791 -0.1327 0.00300255
-0.730531 -0.133216 0.003014
-0.729267 -0.133723 0.00302523
-0.728 -0.134223 0.00303612
-0.72673 -0.134715 0.00304696
-0.725489 -0.135185 0.00305741
-0.724214 -0.135658 0.00306786
-0.722937 -0.136123 0.00307817
-0.721657 -0.13658 0.0030883
-0.720373 -0.137029 0.00309819
-0.719116 -0.137459 0.00310778
-0.718469 -0.137675 0.00311262
-0.717822 -0.137889 0.00311739
-0.717174 -0.1381 0.00312218
-0.716525 -0.13831 0.00312699
-0.71581 -0.138539 0.00313233
-0.715212 -0.138727 0.00313679
-0.714613 -0.138914 0.00314115
-0.714014 -0.139098 0.0031454
-0.713415 -0.139281 0.00314955
-0.71282 -0.139461 0.00315357
-0.71156 -0.139837 0.00316201
-0.710297 -0.140205 0.00317027
-0.709031 -0.140566 0.00317822
-0.707764 -0.140918 0.00318604
-0.706516 -0.141256 0.00319362
-0.705254 -0.14159 0.00320104
-0.703989 -0.141916 0.00320835
-0.702723 -0.142234 0.00321556
-0.701454 -0.142545 0.00322263
-0.700203 -0.142844 0.00322948
-0.69894 -0.143137 0.00323626
-0.697676 -0.143423 0.00324282
-0.69641 -0.143702 0.00324931
-0.695142 -0.143973 0.00325566
-0.693889 -0.144234 0.00326162
-0.692812 -0.144451 0.00326655
-0.691734 -0.144664 0.00327138
-0.690656 -0.144871 0.00327595
-0.689576 -0.145074 0.00328027
-0.688184 -0.145329 0.00328582
-0.688065 -0.14535 0.00328629
-0.687946 -0.145371 0.00328676
-0.687827 -0.145392 0.00328724
-0.687708 -0.145412 0.00328771
-0.68759 -0.145433 0.00328819
-0.686335 -0.145652 0.00329319
-0.68508 -0.145864 0.00329818
-0.683823 -0.14607 0.00330318
-0.682566 -0.146271 0.00330799
-0.681317 -0.146463 0.00331244
-0.680057 -0.146651 0.0033168
-0.678795 -0.146833 0.00332098
-0.677533 -0.14701 0.00332491
-0.67627 -0.147181 0.0033287
-0.675015 -0.147346 0.00333245
-0.673758 -0.147506 0.00333599
-0.6725 -0.147661 0.0033395
-0.671242 -0.147811 0.00334299
-0.669984 -0.147957 0.00334633
-0.66873 -0.148097 0.0033496
-0.667479 -0.148233 0.00335287
-0.666228 -0.148364 0.00335597
-0.664976 -0.148491 0.0033589
-0.663723 -0.148615 0.00336168
-0.662475 -0.148734 0.0033643
-0.661226 -0.14885 0.00336675
-0.659977 -0.148963 0.00336923
-0.658727 -0.149071 0.00337171
-0.657478 -0.149177 0.00337415
-0.656231 -0.149279 0.00337661
-0.654982 -0.149379 0.00337907
-0.653733 -0.149476 0.00338139
-0.652484 -0.14957 0.00338356
-0.651234 -0.14966 0.00338566
-0.649987 -0.149749 0.00338763
-0.648738 -0.149835 0.0033895
-0.647488 -0.149919 0.00339138
-0.646239 -0.15 0.00339326
[...]
POINT_DATA 19030
 FIELD attributes 1
U 3 19030 float
7.63704 	-0.359927 	0.00989018 7.62157 	-0.363138 	0.0103051 7.60607 	-0.366358 	0.0103272 7.59057 	-0.369583 	0.0103494 7.57508 	-0.372811 	0.0103719 7.56122 	-0.375701 	0.0103921 7.54226 	-0.379657 	0.0103783 7.5233 	-0.38362 	0.0103641 7.50434 	-0.387588 	0.0103497 7.48539 	-0.391563 	0.0103349 7.46663 	-0.395596 	0.010448 7.42799 	-0.403982 	0.0106112 7.38938 	-0.412247 	0.0106727 7.35078 	-0.420538 	0.0107355 7.31221 	-0.428855 	0.0107998 7.27432 	-0.43735 	0.0111948 7.23236 	-0.447137 	0.0117738 7.19051 	-0.456461 	0.0118014 7.14869 	-0.465819 	0.0118293 7.10689 	-0.47521 	0.0118574 7.06602 	-0.484826 	0.0124302 7.02033 	-0.495819 	0.0128837 6.97471 	-0.506233 	0.0129191 6.92912 	-0.516687 	0.012955 6.8836 	-0.527203 	0.0129912 6.84037 	-0.538981 	0.0133801 6.79197 	-0.552523 	0.0141687 6.74296 	-0.564823 	0.0142142 6.6936 	-0.576857 	0.0142601 6.6443 	-0.588947 	0.0143066 6.5963 	-0.60129 	0.0150717 6.54222 	-0.615542 	0.0156629 6.4883 	-0.629027 	0.0157201 6.43445 	-0.642579 	0.0157781 6.38319 	-0.65806 	0.0158384 6.33271 	-0.673197 	0.0163314 6.27558 	-0.690777 	0.0174047 6.22018 	-0.708554 	0.0174791 6.16253 	-0.724825 	0.0175536 6.10431 	-0.740734 	0.017629 6.04788 	-0.756933 	0.0186641 5.98322 	-0.775899 	0.0194437 5.91857 	-0.793918 	0.0195386 5.8579 	-0.814496 	0.0196366 5.79826 	-0.835751 	0.0197366 5.71323 	-0.863177 	0.0209695 5.68912 	-0.872751 	0.0209837 5.66236 	-0.88205 	0.0210424 5.63554 	-0.891365 	0.0211034 5.60475 	-0.902677 	0.0211855 5.57343 	-0.913396 	0.0216832 5.5388 	-0.925535 	0.0223947 5.50596 	-0.937589 	0.0225037 5.47287 	-0.949431 	0.0225744 5.43936 	-0.960961 	0.0226898 5.40756 	-0.972477 	0.023398 5.37204 	-0.985335 	0.0238207 5.33734 	-0.997675 	0.0239312 5.30386 	-1.01061 	0.0240146 5.27051 	-1.02351 	0.0241224 5.23733 	-1.03569 	0.0244703 5.20091 	-1.04929 	0.0251924 5.16638 	-1.06267 	0.0251414 5.13195 	-1.07611 	0.0250881 5.09764 	-1.08961 	0.0251426 5.06326 	-1.10321 	0.0260511 5.06142 	-1.10391 	0.026073 5.05968 	-1.1046 	0.026129 5.05794 	-1.10528 	0.0261851 5.0562 	-1.10597 	0.0262412 5.05448 	-1.10665 	0.0262968 5.02059 	-1.12 	0.027131 4.98675 	-1.13343 	0.0270996 4.95302 	-1.14692 	0.0270662 4.91941 	-1.16048 	0.0270307 4.88761 	-1.17377 	0.0277179 4.85089 	-1.1894 	0.0281378 4.81447 	-1.20409 	0.0283116 4.77823 	-1.21866 	0.0284411 4.74407 	-1.23384 	0.0286028 4.71027 	-1.24839 	0.0289256 4.67278 	-1.26478 	0.0298496 4.63725 	-1.28075 	0.0301426 4.60231 	-1.29668 	0.0302932 4.5668 	-1.31209 	0.0305829 4.53267 	-1.32723 	0.0314548 4.49713 	-1.34309 	0.0317833 4.46438 	-1.35825 	0.0321529 4.43217 	-1.37338 	0.032356 4.40017 	-1.38858 	0.0325618 4.3737 	-1.40129 	0.0327354 4.37017 	-1.40301 	0.0327316 4.36665 	-1.40473 	0.0327279 4.36313 	-1.40645 	0.0327241 4.35968 	-1.40815 	0.0327392 4.35647 	-1.40975 	0.03283 4.32102 	-1.42684 	0.0331219 4.28587 	-1.44375 	0.0333833 4.251 	-1.46075 	0.0336487 4.21758 	-1.47735 	0.0338904 4.18601 	-1.49341 	0.0341583 4.15055 	-1.51184 	0.0351769 4.1173 	-1.52953 	0.0356358 4.08498 	-1.5469 	0.0358617 4.05253 	-1.56362 	0.0362904 4.02167 	-1.57999 	0.0371984 3.9979 	-1.59267 	0.0372848 3.97607 	-1.60462 	0.0377045 3.95554 	-1.61608 	0.0378675 3.93518 	-1.6276 	0.0380318 3.91721 	-1.63788 	0.0381792 3.90674 	-1.64404 	0.0381777 3.89633 	-1.6502 	0.038176 3.88595 	-1.65639 	0.0381738 3.87631 	-1.66223 	0.0383206 3.86737 	-1.66775 	0.0386321 3.83667 	-1.6866 	0.0389677 3.8066 	-1.70411 	0.0392674 3.77716 	-1.72085 	0.0395453 3.75224 	-1.73781 	0.0397808 3.7272 	-1.7539 	0.0399545 3.70179 	-1.77013 	0.0408264 3.67845 	-1.78546 	0.0413339 3.658 	-1.7994 	0.0412953 3.63786 	-1.81342 	0.0412541 3.62045 	-1.82583 	0.0415731 3.6166 	-1.8287 	0.0417084 3.61275 	-1.83157 	0.0418438 3.60891 	-1.83444 	0.0419793 3.6056 	-1.83696 	0.0419935 3.60254 	-1.83933 	0.0419469 3.57884 	-1.85701 	0.0425391 3.55565 	-1.8736 	0.0428187 3.53437 	-1.88937 	0.0431104 3.51562 	-1.90395 	0.0436845 3.49845 	-1.91802 	0.0445248 3.48254 	-1.93051 	0.0446731 3.4679 	-1.94237 	0.0446495 3.4568 	-1.952 	0.0447911 3.44589 	-1.96167 	0.044906 3.43597 	-1.97065 	0.0450125 3.43143 	-1.97517 	0.0450429 3.42692 	-1.97969 	0.0450732 3.42245 	-1.98422 	0.0451034 3.41922 	-1.98774 	0.0452991 3.41625 	-1.99108 	0.0455308 3.4014 	-2.00585 	0.0456546 3.38706 	-2.01932 	0.0458689 3.37542 	-2.03102 	0.0462349 3.36787 	-2.04117 	0.0463232 3.36048 	-2.05026 	0.0462511 3.35594 	-2.05497 	0.0465482 3.35168 	-2.05952 	0.046822 3.34974 	-2.06249 	0.0468652 3.34783 	-2.06546 	0.0469085 3.34599 	-2.06837 	0.0469508 3.34184 	-2.07439 	0.0470493 3.33778 	-2.08044 	0.047148 3.33388 	-2.08653 	0.047195 3.33381 	-2.09138 	0.0468544 3.33417 	-2.0962 	0.0466271 3.33002 	-2.10584 	0.0473188 3.32664 	-2.11502 	0.0479584 3.32806 	-2.11994 	0.0481197 3.32985 	-2.12471 	0.0480874 3.33169 	-2.12935 	0.0479732 3.33176 	-2.12969 	0.0479668 3.33182 	-2.13004 	0.0479604 3.33189 	-2.13038 	0.0479541 3.33201 	-2.13046 	0.0479249 3.33214 	-2.13052 	0.0478947 3.33326 	-2.13583 	0.0478834 3.33429 	-2.14042 	0.0478452 3.33607 	-2.14416 	0.0482352 3.34252 	-2.14291 	0.0485385 3.34938 	-2.14106 	0.0486863 3.35077 	-2.14251 	0.0484022 3.35231 	-2.14381 	0.0481111 3.357 	-2.142 	0.0477006 3.36162 	-2.14017 	0.0473764 3.36613 	-2.13829 	0.0473037 3.36941 	-2.13822 	0.047512 3.37267 	-2.13814 	0.047721 3.3759 	-2.13806 	0.0479306 3.38193 	-2.13524 	0.0480364 3.38804 	-2.13224 	0.0481354 3.39661 	-2.13085 	0.0478794 3.40501 	-2.12937 	0.0476257 3.41828 	-2.12248 	0.0475951 3.43184 	-2.11475 	0.0474087 3.4444 	-2.10505 	0.0469793 3.44525 	-2.10455 	0.0469864 3.44615 	-2.104 	0.0469969 3.44754 	-2.10286 	0.0470415 3.44893 	-2.10172 	0.047086 3.45032 	-2.10058 	0.0471308 3.46127 	-2.09352 	0.0470528 3.47195 	-2.08638 	0.0469756 3.48238 	-2.07919 	0.0466074 3.49616 	-2.067 	0.045922 3.50975 	-2.0544 	0.0454391 3.51955 	-2.04775 	0.0454364 3.52963 	-2.04035 	0.0454828 3.54235 	-2.02883 	0.0458151 3.55476 	-2.01727 	0.0458783 3.56756 	-2.00507 	0.0453187 3.57047 	-2.00252 	0.04506 3.57337 	-1.99997 	0.044801 3.57624 	-1.99742 	0.0445416 3.57965 	-1.99387 	0.0443547 3.58314 	-1.99009 	0.0441863 3.59903 	-1.97796 	0.0439425 3.61335 	-1.96372 	0.043385 3.62707 	-1.94726 	0.0435552 3.6432 	-1.92616 	0.0431211 3.65809 	-1.90532 	0.0425938 3.66715 	-1.8955 	0.0422286 3.67658 	-1.88466 	0.0416798 3.68723 	-1.87135 	0.0406773 3.69753 	-1.85794 	0.0401213 3.70818 	-1.8435 	0.0399559 3.7128 	-1.83706 	0.0401218 3.71735 	-1.83061 	0.0402877 3.72183 	-1.82414 	0.0404533 3.72671 	-1.8166 	0.0404118 3.73171 	-1.80858 	0.0402643 3.74759 	-1.79061 	0.0397617 3.76194 	-1.77134 	0.0393829 3.77428 	-1.74894 	0.0389718 3.78709 	-1.72287 	0.0383307 3.79875 	-1.69729 	0.0377019 3.80983 	-1.68163 	0.03731 3.82077 	-1.66429 	0.0372483 3.83162 	-1.64487 	0.0376007 3.84206 	-1.6254 	0.0371931 3.85317 	-1.60367 	0.0363137 3.85516 	-1.59932 	0.0360225 3.85712 	-1.59496 	0.0357311 3.85906 	-1.59059 	0.0354396 3.86095 	-1.58587 	0.0352283 3.8628 	-1.5808 	0.0351055 3.87567 	-1.55797 	0.0344358 3.88554 	-1.53289 	0.033398 3.89457 	-1.50754 	0.0332615 3.90303 	-1.47956 	0.0328282 3.91056 	-1.45121 	0.0320801 3.922 	-1.42779 	0.0316365 3.93264 	-1.40394 	0.031126 3.94235 	-1.37748 	0.0303881 3.94999 	-1.34994 	0.03013 3.95372 	-1.3207 	0.0295804 3.95867 	-1.30856 	0.0292019 3.96267 	-1.29523 	0.0292518 3.96625 	-1.28149 	0.0294333 3.96961 	-1.26771 	0.0296137 3.97311 	-1.25248 	0.0296617 3.97534 	-1.23981 	0.0289497 3.97741 	-1.22711 	0.0282371 3.97932 	-1.21437 	0.0275238 3.98088 	-1.20142 	0.0268952 3.98145 	-1.18773 	0.0266692 3.98937 	-1.16346 	0.0260894 3.99226 	-1.13707 	0.0250611 3.99429 	-1.11045 	0.0246677 3.99453 	-1.08284 	0.0242442 3.99353 	-1.05512 	0.0234679 3.99903 	-1.03128 	0.0231179 4.0038 	-1.00729 	0.0228014 4.0053 	-0.981988 	0.0223365 4.00204 	-0.954975 	0.0219038 3.99809 	-0.9282 	0.0214758 4.00216 	-0.904872 	0.0207506 4.00378 	-0.881037 	0.020531 4.00331 	-0.856795 	0.0200455 4.0022 	-0.832436 	0.0190493 3.99646 	-0.80734 	0.0182839 3.99717 	-0.788169 	0.0179094 3.99543 	-0.768969 	0.016936 3.99324 	-0.749675 	0.0159616 3.99056 	-0.730246 	0.015908 3.98651 	-0.705094 	0.0158732 3.98603 	-0.702897 	0.0158859 3.98555 	-0.700699 	0.0158985 3.98505 	-0.6985 	0.0159111 3.98455 	-0.6963 	0.0159237 3.98389 	-0.694121 	0.0158822 3.97972 	-0.673348 	0.0158365 3.9747 	-0.652478 	0.0158132 3.96914 	-0.631528 	0.0151694 3.96304 	-0.610489 	0.0141305 3.95438 	-0.589843 	0.0136945 3.95142 	-0.571115 	0.0130768 3.94482 	-0.55283 	0.0122877 3.93773 	-0.534454 	0.0118268 3.92947 	-0.516181 	0.0117131 3.919 	-0.498486 	0.0110472 3.91467 	-0.482067 	0.0109229 3.90877 	-0.466031 	0.0108463 3.90083 	-0.450603 	0.0103591 3.89051 	-0.435664 	0.0101585 3.87928 	-0.420891 	0.010119 3.87444 	-0.407054 	0.00959171 3.86922 	-0.393156 	0.00906199 3.86109 	-0.380518 	0.00859043 3.85061 	-0.36858 	0.00805245 3.83983 	-0.356632 	0.00755989 3.83456 	-0.34506 	0.00758621 3.82896 	-0.333439 	0.00761105 3.82109 	-0.322669 	0.00747662 3.81087 	-0.313082 	0.0074916 3.80042 	-0.303485 	0.00750655 3.79555 	-0.293927 	0.0070482 3.79042 	-0.284333 	0.00658943 3.78286 	-0.27514 	0.00633882 3.77367 	-0.267442 	0.00597588 3.7642 	-0.259841 	0.00561401 3.75936 	-0.251899 	0.00568403 3.75373 	-0.244062 	0.00562681 3.74664 	-0.236489 	0.00540083 3.73855 	-0.229803 	0.00543868 3.72972 	-0.223767 	0.00549936 3.72554 	-0.217208 	0.00515556 3.71999 	-0.210848 	0.00503255 3.71347 	-0.204607 	0.00486159 3.70652 	-0.198746 	0.0045997 3.69875 	-0.19397 	0.00433211 3.69477 	-0.188498 	0.00440564 3.68921 	-0.1833 	0.00422295 3.68328 	-0.178139 	0.00406884 3.67722 	-0.172973 	0.00407547 3.67003 	-0.169151 	0.00414961 3.66658 	-0.164607 	0.00391535 3.66136 	-0.160336 	0.00393076 3.656 	-0.156046 	0.00381336 3.65053 	-0.151742 	0.00363859 3.64442 	-0.148383 	0.00344986 3.64087 	-0.144602 	0.00345649 3.63614 	-0.141018 	0.00330783 3.63131 	-0.13743 	0.00320496 3.62639 	-0.13384 	0.00321134 3.6209 	-0.130863 	0.00325441 3.61759 	-0.127718 	0.00316135 3.61334 	-0.124711 	0.0031731 3.60899 	-0.121691 	0.0030926 3.60456 	-0.118662 	0.00297402 3.59983 	-0.116006 	0.0028454 3.59657 	-0.113365 	0.00280244 3.59273 	-0.110808 	0.00270225 3.58883 	-0.108249 	0.0026329 3.58486 	-0.10569 	0.00264026 3.58066 	-0.103316 	0.00266053 3.57759 	-0.101094 	0.00263773 3.57413 	-0.0989171 	0.00264506 3.57061 	-0.0967315 	0.00258941 3.56703 	-0.0945406 	0.00250873 3.56335 	-0.0924013 	0.00242587 3.56187 	-0.0914312 	0.00239669 3.56029 	-0.0904747 	0.00235909 3.55869 	-0.0895176 	0.00232148 3.55708 	-0.0885598 	0.00228386 3.55529 	-0.0875012 	0.0022423 3.5537 	-0.0865939 	0.00223388 3.55209 	-0.0856869 	0.00223424 3.55048 	-0.0847794 	0.00223457 3.54885 	-0.0838713 	0.00223489 3.54713 	-0.0829729 	0.00222799 3.54429 	-0.0813113 	0.00222679 3.54136 	-0.0796853 	0.00222311 3.53838 	-0.0780517 	0.00217304 3.53536 	-0.076414 	0.00210517 3.53203 	-0.0748043 	0.00205562 3.52959 	-0.0732898 	0.00198685 3.52693 	-0.0718729 	0.00192819 3.52424 	-0.0704562 	0.001885 3.52152 	-0.0690429 	0.00188287 3.51839 	-0.0676719 	0.00185523 3.51627 	-0.0662978 	0.00186162 3.51387 	-0.0650675 	0.00185916 3.51143 	-0.063832 	0.0018209 3.50896 	-0.0625936 	0.00176926 3.5059 	-0.0614115 	0.00175087 3.50411 	-0.0601561 	0.00168771 3.50192 	-0.0590737 	0.00164207 3.4997 	-0.0579915 	0.00160832 3.49745 	-0.056912 	0.00160694 3.49458 	-0.0558957 	0.00157106 3.49302 	-0.0547514 	0.00158122 3.49103 	-0.0538026 	0.00157931 3.48902 	-0.0528496 	0.0015475 3.48698 	-0.0518945 	0.00150478 3.48415 	-0.0510107 	0.00150125 3.48292 	-0.0499587 	0.00144165 3.48111 	-0.0491134 	0.00140583 3.47928 	-0.0482685 	0.00137918 3.47744 	-0.0474258 	0.00137803 3.4748 	-0.0466586 	0.00134266 3.47372 	-0.0456941 	0.00135469 3.47207 	-0.0449455 	0.00135415 3.47039 	-0.0441942 	0.00133275 3.46869 	-0.0434416 	0.00130389 3.46602 	-0.0427716 	0.0013179 3.46524 	-0.0418871 	0.0012689 3.46371 	-0.0412192 	0.00124458 3.46217 	-0.0405515 	0.00122692 3.46062 	-0.039885 	0.00122815 3.45814 	-0.0393005 	0.00119423 3.45744 	-0.0384906 	0.00121161 3.45605 	-0.0378978 	0.00121342 3.45464 	-0.0373032 	0.00119616 3.45321 	-0.0367078 	0.00117222 3.45068 	-0.0361957 	0.00118862 3.45027 	-0.0354488 	0.00114216 3.44899 	-0.0349161 	0.00112006 3.4477 	-0.0343835 	0.00110423 3.44641 	-0.033852 	0.00110647 3.44408 	-0.0334021 	0.00107464 3.44372 	-0.0327138 	0.0010901 3.44256 	-0.0322345 	0.00109247 3.44139 	-0.0317538 	0.00107989 3.4402 	-0.0312724 	0.00106214 3.43779 	-0.0308733 	0.00108369 3.43772 	-0.0302363 	0.00104802 3.43664 	-0.0298007 	0.00103461 3.43556 	-0.0293653 	0.00102542 3.43446 	-0.0289305 	0.00102861 3.43223 	-0.028575 	0.00100038 3.43213 	-0.0279859 	0.00101982 3.43115 	-0.0275924 	0.00102384 3.43015 	-0.0271982 	0.00101648 3.42914 	-0.0268037 	0.00100526 3.42681 	-0.026487 	0.00102641 3.42701 	-0.0259412 	0.000998089 3.42611 	-0.0255837 	0.000990742 3.42519 	-0.0252259 	0.000986503 3.42427 	-0.0248678 	0.000991504 3.42213 	-0.0245873 	0.000970617 3.42229 	-0.0240845 	0.000993697 3.42147 	-0.0237547 	0.000996495 3.42061 	-0.0234269 	0.000993298 3.41971 	-0.0231014 	0.000988922 3.41746 	-0.0228445 	0.00100638 3.41785 	-0.0223825 	0.000984676 3.41711 	-0.0220726 	0.000975872 3.41632 	-0.0217706 	0.000969034 3.41543 	-0.0214743 	0.000964246 3.4134 	-0.021239 	0.000931608 3.41369 	-0.0208117 	0.000943242 3.41303 	-0.0205262 	0.000939226 3.41229 	-0.0202507 	0.000928845 3.4114 	-0.0199807 	0.000918665 3.40927 	-0.0197704 	0.000925885 3.40976 	-0.019377 	0.000894588 3.40921 	-0.019111 	0.000880403 3.40852 	-0.0188611 	0.000870189 3.40768 	-0.0186206 	0.000863201 3.40578 	-0.0184338 	0.000838778 3.40619 	-0.0180733 	0.000844945 3.40571 	-0.0178288 	0.000842699 3.40507 	-0.0176015 	0.000833898 3.40421 	-0.0173828 	0.000826681 3.40218 	-0.0172155 	0.000837798 3.40279 	-0.0168864 	0.000813196 3.40238 	-0.0166596 	0.000800063 3.40178 	-0.0164532 	0.000791092 3.40096 	-0.0162576 	0.000784735 3.39914 	-0.0161068 	0.000762839 3.39963 	-0.0158045 	0.000767303 3.39928 	-0.0155956 	0.000765911 3.39872 	-0.0154071 	0.00075626 3.39789 	-0.0152283 	0.000748201 3.39599 	-0.0150904 	0.000755367 3.39669 	-0.0148091 	0.000729774 3.39644 	-0.0146116 	0.000717046 3.39593 	-0.0144369 	0.000709454 3.39515 	-0.0142741 	0.000704725 3.39344 	-0.0141499 	0.000691389 3.39403 	-0.0138884 	0.000694454 3.3938 	-0.0137041 	0.000694299 3.39332 	-0.0135428 	0.000690198 3.3925 	-0.0133935 	0.000690051 3.39065 	-0.0132823 	0.000705193 3.39142 	-0.013043 	0.000688595 3.39127 	-0.0128731 	0.000681663 3.39082 	-0.0127268 	0.000678985 3.39004 	-0.0125925 	0.000676401 3.38839 	-0.012492 	0.000665271 3.38904 	-0.0122729 	0.000673959 3.3889 	-0.0121172 	0.000677312 3.38847 	-0.0119851 	0.000673472 3.38767 	-0.0118646 	0.000672377 3.3859 	-0.0117744 	0.000682527 3.38672 	-0.0115705 	0.000665681 3.38668 	-0.0114254 	0.000656559 3.38629 	-0.0113043 	0.000652395 3.38554 	-0.0111949 	0.000650756 3.38397 	-0.0111129 	0.000641349 3.38469 	-0.0109236 	0.000647054 3.38467 	-0.010787 	0.000650207 3.38431 	-0.0106734 	0.000648295 3.38352 	-0.0105714 	0.000649918 3.38182 	-0.0104946 	0.000661956 3.38273 	-0.0103174 	0.000653359 3.38279 	-0.0101878 	0.000650258 3.38245 	-0.0100807 	0.00065053 3.38171 	-0.00998467 	0.000650113 3.38018 	-0.00991132 	0.000643252 3.38093 	-0.0097451 	0.00065356 3.38097 	-0.00962276 	0.000659526 3.38065 	-0.00952311 	0.000660776 3.37987 	-0.00943421 	0.000664375 3.37823 	-0.00936567 	0.000673942 3.37918 	-0.00921019 	0.000669838 3.37933 	-0.0090955 	0.00067041 3.37903 	-0.00900253 	0.00067389 3.37832 	-0.00891986 	0.000676571 3.37684 	-0.00885767 	0.000675593 3.37767 	-0.00871254 	0.00069011 3.37779 	-0.0086023 	0.000696837 3.37751 	-0.00851283 	0.000700698 3.37673 	-0.00843354 	0.000705782 3.37509 	-0.00837118 	0.00071212 3.37609 	-0.00823394 	0.000711079 3.3763 	-0.00812772 	0.00071079 3.37602 	-0.00804051 	0.000710154 3.37528 	-0.00796361 	0.000701786 3.37381 	-0.00790217 	0.000685224 3.37466 	-0.00776947 	0.000689335 3.37483 	-0.00766905 	0.000687373 3.37456 	-0.0075876 	0.000682491 3.37376 	-0.00751646 	0.000678706 3.37215 	-0.00746191 	0.000676171 3.37316 	-0.00733691 	0.000661796 3.37342 	-0.00724223 	0.000652784 3.37316 	-0.00716818 	0.000647468 3.37244 	-0.00710588 	0.00064008 3.371 	-0.00705896 	0.00062908 3.3719 	-0.00694303 	0.000628738 3.37214 	-0.0068559 	0.000626279 3.3719 	-0.00678802 	0.000621959 3.3711 	-0.00673086 	0.000620559 3.3695 	-0.00668916 	0.000623432 3.37055 	-0.00658348 	0.000613095 3.37086 	-0.00650319 	0.00060557 3.37063 	-0.00644156 	0.00060057 3.36988 	-0.00639052 	0.000594075 3.36846 	-0.00635281 	0.000583354 3.36937 	-0.0062546 	0.000582244 3.36964 	-0.00618039 	0.000580039 3.36943 	-0.00612353 	0.000573968 3.36863 	-0.00607559 	0.000570038 3.36709 	-0.00603959 	0.000570059 3.36818 	-0.0059453 	0.00055642 3.36855 	-0.00587298 	0.000547717 3.36835 	-0.00581809 	0.000543402 3.36763 	-0.00577351 	0.000540266 3.36625 	-0.00574112 	0.000536393 3.3672 	-0.00565067 	0.000534664 3.36753 	-0.00558134 	0.00053314 3.36733 	-0.00552908 	0.000532128 3.36653 	-0.00548747 	0.000535757 3.36499 	-0.00545882 	0.000544896 3.36609 	-0.00537636 	0.000538511 3.36649 	-0.00531325 	0.000535645 3.3663 	-0.00526629 	0.000535766 3.36557 	-0.00522883 	0.000534442 3.3642 	-0.0052029 	0.000531279 3.36515 	-0.00512763 	0.00053596 3.3655 	-0.00507035 	0.000538774 3.36532 	-0.00502893 	0.000537432 3.36452 	-0.0049962 	0.000538622 3.36301 	-0.00497328 	0.000543536 3.36412 	-0.00490166 	0.000535325 3.36456 	-0.00484775 	0.000529914 3.36439 	-0.00480962 	0.000527986 3.36368 	-0.00477953 	0.000527497 3.36235 	-0.00475846 	0.000524813 3.36333 	-0.00469087 	0.000527052 3.36373 	-0.00463879 	0.000529118 3.36359 	-0.00460112 	0.000529324 3.3628 	-0.00457107 	0.000532819 3.36132 	-0.00454917 	0.00054038 3.36248 	-0.00448411 	0.00053923 3.36297 	-0.00443314 	0.000539768 3.36283 	-0.00439539 	0.000542006 3.3621 	-0.00436423 	0.00054277 3.36077 	-0.00434033 	0.000541597 3.36176 	-0.0042771 	0.000548991 3.36217 	-0.00422723 	0.00055448 3.36204 	-0.00419095 	0.000557539 3.36125 	-0.00416086 	0.000561793 3.3598 	-0.0041369 	0.000567436 3.36097 	-0.00407653 	0.000569739 3.36149 	-0.0040291 	0.000573572 3.36136 	-0.00399416 	0.000578761 3.36066 	-0.00396505 	0.000583028 3.35936 	-0.00394308 	0.000586947 3.36039 	-0.00388556 	0.000599028 3.36085 	-0.00383799 	0.00060618 3.36073 	-0.00380154 	0.000611674 3.35992 	-0.00377033 	0.000616326 3.35846 	-0.00374394 	0.000619236 3.35964 	-0.00368756 	0.000623754 3.36018 	-0.00363971 	0.000627058 3.36005 	-0.0036009 	0.000627895 3.35932 	-0.00356729 	0.000619755 3.358 	-0.00353808 	0.000607168 3.35903 	-0.00347982 	0.000609096 3.35949 	-0.00343249 	0.000607161 3.35936 	-0.0033953 	0.000603568 3.35854 	-0.0033639 	0.000599252 3.35707 	-0.00333829 	0.000593625 3.35824 	-0.00328211 	0.000583883 3.3588 	-0.00323667 	0.000576958 3.35868 	-0.00320319 	0.000572813 3.35794 	-0.00317684 	0.000566416 3.35664 	-0.00315593 	0.000558847 3.3577 	-0.00310364 	0.000556602 3.3582 	-0.00306194 	0.000553475 3.35808 	-0.00303121 	0.00055026 3.35725 	-0.00300681 	0.000548982 3.35579 	-0.00298827 	0.000549227 3.35698 	-0.00294149 	0.000542939 3.35755 	-0.00290364 	0.00053767 3.35743 	-0.00287601 	0.000533675 3.35668 	-0.0028543 	0.000527892 3.35537 	-0.00283725 	0.000520117 3.35641 	-0.00279347 	0.000517389 3.35692 	-0.00275846 	0.000514453 3.35681 	-0.00273273 	0.000509302 3.356 	-0.00271126 	0.000505436 3.35456 	-0.00269364 	0.000503159 3.35578 	-0.00264985 	0.00049303 3.35638 	-0.00261403 	0.000485917 3.35629 	-0.00258762 	0.000482508 3.35556 	-0.00256698 	0.000480588 3.35428 	-0.00255081 	0.000479316 3.35535 	-0.00250703 	0.000476224 3.35589 	-0.00247128 	0.000473879 3.35579 	-0.002445 	0.00047379 3.35496 	-0.0024251 	0.00047784 3.35351 	-0.00241057 	0.000485066 3.35472 	-0.00237131 	0.000481809 3.35533 	-0.00233937 	0.000480598 3.35523 	-0.00231608 	0.000481603 3.35449 	-0.00229789 	0.000481176 3.35321 	-0.00228425 	0.000480273 3.35427 	-0.00