# vtk DataFile Version 2.0
track0
ASCII
DATASET POLYDATA
POINTS 19030 float
-1.001 -0.05 0.0011
-0.999912 -0.0500513 0.00110141
-0.998824 -0.0501031 0.00110288
-0.997737 -0.0501555 0.00110436
-0.996649 -0.0502085 0.00110584
-0.995676 -0.0502563 0.00110717
-0.994344 -0.0503225 0.001109
-0.993011 -0.0503896 0.00111084
-0.991679 -0.0504576 0.00111267
-0.990346 -0.0505264 0.00111451
-0.989013 -0.0505961 0.00111635
-0.986517 -0.0507284 0.00111984
-0.984021 -0.0508641 0.00112341
-0.981525 -0.0510034 0.00112701
-0.979029 -0.0511461 0.00113066
-0.976532 -0.0512926 0.00113435
-0.974036 -0.0514427 0.00113819
-0.97154 -0.051597 0.00114225
-0.969044 -0.0517554 0.00114635
-0.966549 -0.051918 0.00115048
-0.964051 -0.052085 0.00115464
-0.961555 -0.0522563 0.00115904
-0.959059 -0.0524326 0.00116362
-0.956563 -0.0526138 0.00116824
-0.954067 -0.0527998 0.00117291
-0.951569 -0.0529912 0.00117762
-0.949072 -0.0531879 0.0011825
-0.946576 -0.0533909 0.00118771
-0.944081 -0.0536 0.00119297
-0.941586 -0.053815 0.00119829
-0.939087 -0.0540365 0.00120367
-0.93659 -0.0542641 0.00120937
-0.934094 -0.054499 0.00121535
-0.931599 -0.0547409 0.00122139
-0.929104 -0.05499 0.00122751
-0.926604 -0.0552478 0.00123372
-0.924107 -0.0555132 0.00124015
-0.921611 -0.0557879 0.00124708
-0.919116 -0.0560721 0.00125409
-0.916622 -0.0563654 0.00126119
-0.914119 -0.0566692 0.00126842
-0.91162 -0.0569819 0.00127613
-0.909123 -0.0573058 0.00128425
-0.906627 -0.0576406 0.00129249
-0.904132 -0.0579875 0.00130085
-0.901624 -0.058349 0.00130939
-0.900376 -0.0585376 0.00131397
-0.899128 -0.0587291 0.00131857
-0.89788 -0.0589234 0.00132321
-0.896633 -0.0591207 0.00132788
-0.895381 -0.0593223 0.00133261
-0.894133 -0.0595269 0.00133747
-0.892885 -0.0597354 0.00134251
-0.891637 -0.0599478 0.00134761
-0.890391 -0.0601641 0.00135275
-0.889138 -0.0603853 0.00135798
-0.88789 -0.0606099 0.00136338
-0.886642 -0.0608388 0.00136891
-0.885395 -0.0610719 0.00137451
-0.884149 -0.0613093 0.00138015
-0.882895 -0.0615528 0.00138588
-0.881646 -0.0617997 0.00139172
-0.880399 -0.0620514 0.00139776
-0.879152 -0.0623079 0.00140383
-0.877906 -0.0625691 0.00140992
-0.876651 -0.0628373 0.00141611
-0.87659 -0.0628507 0.00141642
-0.876529 -0.062864 0.00141674
-0.876468 -0.0628774 0.00141706
-0.876406 -0.0628907 0.00141737
-0.876346 -0.062904 0.00141769
-0.875157 -0.0631642 0.00142387
-0.87397 -0.063429 0.00143029
-0.872784 -0.0636986 0.00143673
-0.871599 -0.0639731 0.00144321
-0.870404 -0.0642549 0.00144977
-0.869154 -0.0645551 0.00145686
-0.867905 -0.0648613 0.0014641
-0.866658 -0.0651732 0.00147144
-0.865412 -0.0654909 0.00147885
-0.864153 -0.0658183 0.00148644
-0.862903 -0.0661498 0.00149412
-0.861654 -0.0664879 0.0015021
-0.860407 -0.0668323 0.00151021
-0.859161 -0.0671832 0.00151841
-0.8579 -0.0675457 0.00152686
-0.856733 -0.0678872 0.00153495
-0.855569 -0.068235 0.00154318
-0.854406 -0.0685888 0.00155155
-0.853245 -0.0689485 0.00156003
-0.85228 -0.069253 0.00156717
-0.852152 -0.0692939 0.00156813
-0.852025 -0.0693349 0.00156908
-0.851897 -0.069376 0.00157004
-0.851769 -0.0694171 0.001571
-0.851642 -0.0694584 0.00157196
-0.85039 -0.0698635 0.00158139
-0.84914 -0.0702761 0.00159097
-0.847893 -0.0706961 0.00160068
-0.846649 -0.0711237 0.00161053
-0.845382 -0.0715675 0.00162071
-0.844129 -0.0720145 0.00163093
-0.84288 -0.0724697 0.00164153
-0.841633 -0.0729329 0.00165232
-0.840389 -0.0734039 0.00166324
-0.839118 -0.0738943 0.00167462
-0.83827 -0.0742273 0.00168246
-0.837424 -0.0745644 0.00169035
-0.83658 -0.0749052 0.00169836
-0.835737 -0.0752496 0.00170643
-0.834987 -0.0755595 0.00171367
-0.83456 -0.0757384 0.00171784
-0.834132 -0.0759183 0.00172202
-0.833705 -0.0760992 0.0017262
-0.833278 -0.0762811 0.00173039
-0.832848 -0.0764656 0.00173465
-0.831593 -0.0770069 0.00174719
-0.830341 -0.077557 0.0017599
-0.829094 -0.0781155 0.00177277
-0.82785 -0.0786822 0.00178579
-0.826572 -0.0792741 0.00179934
-0.825484 -0.079786 0.001811
-0.8244 -0.0803046 0.00182296
-0.823318 -0.0808295 0.00183511
-0.822239 -0.0813601 0.00184729
-0.821291 -0.0818331 0.00185805
-0.821088 -0.0819354 0.00186038
-0.820885 -0.0820379 0.00186272
-0.820682 -0.0821407 0.00186506
-0.82048 -0.0822436 0.00186742
-0.820276 -0.0823473 0.00186979
-0.819012 -0.082993 0.00188452
-0.817751 -0.083647 0.0018995
-0.816495 -0.0843089 0.00191462
-0.815243 -0.0849783 0.0019299
-0.813952 -0.0856773 0.00194594
-0.81303 -0.0861826 0.00195767
-0.812111 -0.0866923 0.00196946
-0.811194 -0.087206 0.00198127
-0.810278 -0.0877229 0.00199313
-0.809433 -0.0882043 0.00200415
-0.809071 -0.0884115 0.00200888
-0.808711 -0.0886193 0.00201362
-0.80835 -0.0888276 0.00201836
-0.80799 -0.0890364 0.00202311
-0.807627 -0.0892476 0.00202792
-0.806363 -0.089984 0.00204476
-0.805103 -0.0907268 0.00206167
-0.803847 -0.0914757 0.00207868
-0.802594 -0.0922296 0.00209584
-0.801309 -0.0930084 0.00211352
-0.800829 -0.0933013 0.00212013
-0.80035 -0.0935951 0.00212678
-0.79987 -0.0938895 0.00213347
-0.799391 -0.0941844 0.00214017
-0.798923 -0.0944731 0.00214673
-0.798136 -0.0949596 0.00215777
-0.79735 -0.0954475 0.00216884
-0.796565 -0.0959369 0.00217993
-0.795781 -0.0964277 0.00219103
-0.794989 -0.0969248 0.00220217
-0.793766 -0.0976935 0.00221927
-0.792545 -0.0984655 0.00223662
-0.791326 -0.0992405 0.00225419
-0.790108 -0.100016 0.0022718
-0.788929 -0.100769 0.00228883
-0.788876 -0.100803 0.00228959
-0.788824 -0.100836 0.00229035
-0.788771 -0.10087 0.00229111
-0.788718 -0.100904 0.00229186
-0.788665 -0.100937 0.00229262
-0.7874 -0.101746 0.0023108
-0.786136 -0.102556 0.00232896
-0.784873 -0.103367 0.00234709
-0.78361 -0.104179 0.00236535
-0.782341 -0.104993 0.00238378
-0.781691 -0.105408 0.00239324
-0.78104 -0.105824 0.00240263
-0.78039 -0.10624 0.00241196
-0.77974 -0.106655 0.0024212
-0.779086 -0.107071 0.00243041
-0.778468 -0.107464 0.0024391
-0.777849 -0.107856 0.00244783
-0.77723 -0.108249 0.00245658
-0.776611 -0.108641 0.00246537
-0.775994 -0.109031 0.00247414
-0.774731 -0.109825 0.00249209
-0.773466 -0.110619 0.00250991
-0.772201 -0.11141 0.0025276
-0.770933 -0.112197 0.00254526
-0.769678 -0.11297 0.0025626
-0.769552 -0.113048 0.00256432
-0.769425 -0.113125 0.00256604
-0.769299 -0.113202 0.00256777
-0.769172 -0.113279 0.0025695
-0.769045 -0.113357 0.00257123
-0.767909 -0.114049 0.00258675
-0.766771 -0.114737 0.00260223
-0.76563 -0.115422 0.00261765
-0.764488 -0.116104 0.00263294
-0.763364 -0.116769 0.00264771
-0.762386 -0.117341 0.00266037
-0.761406 -0.117911 0.00267302
-0.760426 -0.118478 0.00268566
-0.759442 -0.119041 0.00269837
-0.758404 -0.11963 0.00271177
-0.758135 -0.119782 0.00271519
-0.757866 -0.119933 0.00271859
-0.757596 -0.120084 0.00272197
-0.757326 -0.120234 0.00272533
-0.757058 -0.120384 0.00272866
-0.755791 -0.121088 0.00274428
-0.754521 -0.121785 0.00275978
-0.753248 -0.122477 0.00277507
-0.751972 -0.123163 0.00279039
-0.750724 -0.123822 0.00280516
-0.749907 -0.124248 0.00281467
-0.749089 -0.12467 0.00282409
-0.74827 -0.125091 0.00283338
-0.747448 -0.125507 0.00284245
-0.746569 -0.125949 0.00285198
-0.746137 -0.126164 0.00285664
-0.745704 -0.126378 0.00286132
-0.74527 -0.126592 0.00286602
-0.744836 -0.126804 0.00287074
-0.744406 -0.127014 0.0028754
-0.743143 -0.127627 0.00288903
-0.741876 -0.128232 0.00290247
-0.740606 -0.12883 0.00291577
-0.739332 -0.12942 0.00292892
-0.738089 -0.129986 0.00294151
-0.73709 -0.130432 0.00295142
-0.73609 -0.130873 0.00296121
-0.735087 -0.13131 0.00297099
-0.734082 -0.131742 0.00298085
-0.732963 -0.132215 0.00299169
-0.732728 -0.132313 0.0029939
-0.732494 -0.13241 0.00299609
-0.732259 -0.132507 0.00299826
-0.732025 -0.132604 0.00300042
-0.731791 -0.1327 0.00300255
-0.730531 -0.133216 0.003014
-0.729267 -0.133723 0.00302523
-0.728 -0.134223 0.00303612
-0.72673 -0.134715 0.00304696
-0.725489 -0.135185 0.00305741
-0.724214 -0.135658 0.00306786
-0.722937 -0.136123 0.00307817
-0.721657 -0.13658 0.0030883
-0.720373 -0.137029 0.00309819
-0.719116 -0.137459 0.00310778
-0.718469 -0.137675 0.00311262
-0.717822 -0.137889 0.00311739
-0.717174 -0.1381 0.00312218
-0.716525 -0.13831 0.00312699
-0.71581 -0.138539 0.00313233
-0.715212 -0.138727 0.00313679
-0.714613 -0.138914 0.00314115
-0.714014 -0.139098 0.0031454
-0.713415 -0.139281 0.00314955
-0.71282 -0.139461 0.00315357
-0.71156 -0.139837 0.00316201
-0.710297 -0.140205 0.00317027
-0.709031 -0.140566 0.00317822
-0.707764 -0.140918 0.00318604
-0.706516 -0.141256 0.00319362
-0.705254 -0.14159 0.00320104
-0.703989 -0.141916 0.00320835
-0.702723 -0.142234 0.00321556
-0.701454 -0.142545 0.00322263
-0.700203 -0.142844 0.00322948
-0.69894 -0.143137 0.00323626
-0.697676 -0.143423 0.00324282
-0.69641 -0.143702 0.00324931
-0.695142 -0.143973 0.00325566
-0.693889 -0.144234 0.00326162
-0.692812 -0.144451 0.00326655
-0.691734 -0.144664 0.00327138
-0.690656 -0.144871 0.00327595
-0.689576 -0.145074 0.00328027
-0.688184 -0.145329 0.00328582
-0.688065 -0.14535 0.00328629
-0.687946 -0.145371 0.00328676
-0.687827 -0.145392 0.00328724
-0.687708 -0.145412 0.00328771
-0.68759 -0.145433 0.00328819
-0.686335 -0.145652 0.00329319
-0.68508 -0.145864 0.00329818
-0.683823 -0.14607 0.00330318
-0.682566 -0.146271 0.00330799
-0.681317 -0.146463 0.00331244
-0.680057 -0.146651 0.0033168
-0.678795 -0.146833 0.00332098
-0.677533 -0.14701 0.00332491
-0.67627 -0.147181 0.0033287
-0.675015 -0.147346 0.00333245
-0.673758 -0.147506 0.00333599
-0.6725 -0.147661 0.0033395
-0.671242 -0.147811 0.00334299
-0.669984 -0.147957 0.00334633
-0.66873 -0.148097 0.0033496
-0.667479 -0.148233 0.00335287
-0.666228 -0.148364 0.00335597
-0.664976 -0.148491 0.0033589
-0.663723 -0.148615 0.00336168
-0.662475 -0.148734 0.0033643
-0.661226 -0.14885 0.00336675
-0.659977 -0.148963 0.00336923
-0.658727 -0.149071 0.00337171
-0.657478 -0.149177 0.00337415
-0.656231 -0.149279 0.00337661
-0.654982 -0.149379 0.00337907
-0.653733 -0.149476 0.00338139
-0.652484 -0.14957 0.00338356
-0.651234 -0.14966 0.00338566
-0.649987 -0.149749 0.00338763
-0.648738 -0.149835 0.0033895
-0.647488 -0.149919 0.00339138
-0.646239 -0.15 0.00339326
[...]
POINT_DATA 19030
 FIELD attributes 2
p 1 19030 float
1.10731e+06 1.10732e+06 1.10732e+06 1.10732e+06 1.10732e+06 1.10733e+06 1.10733e+06 1.10733e+06 1.10734e+06 1.10734e+06 1.10735e+06 1.10735e+06 1.10736e+06 1.10737e+06 1.10737e+06 1.10738e+06 1.10739e+06 1.1074e+06 1.10741e+06 1.10741e+06 1.10742e+06 1.10743e+06 1.10744e+06 1.10745e+06 1.10746e+06 1.10746e+06 1.10747e+06 1.10748e+06 1.10749e+06 1.1075e+06 1.10751e+06 1.10752e+06 1.10753e+06 1.10755e+06 1.10756e+06 1.10757e+06 1.10758e+06 1.10759e+06 1.1076e+06 1.10761e+06 1.10762e+06 1.10763e+06 1.10765e+06 1.10766e+06 1.10768e+06 1.1077e+06 1.10769e+06 1.1077e+06 1.10771e+06 1.10772e+06 1.10775e+06 1.10776e+06 1.10777e+06 1.10779e+06 1.1078e+06 1.10782e+06 1.10783e+06 1.10784e+06 1.10786e+06 1.10787e+06 1.10789e+06 1.1079e+06 1.10791e+06 1.10793e+06 1.10794e+06 1.10795e+06 1.10796e+06 1.10796e+06 1.10796e+06 1.10796e+06 1.10796e+06 1.10797e+06 1.10798e+06 1.108e+06 1.10801e+06 1.10803e+06 1.10804e+06 1.10805e+06 1.10807e+06 1.10808e+06 1.1081e+06 1.10811e+06 1.10813e+06 1.10814e+06 1.10816e+06 1.10817e+06 1.10819e+06 1.1082e+06 1.10821e+06 1.10823e+06 1.10824e+06 1.10824e+06 1.10824e+06 1.10824e+06 1.10825e+06 1.10825e+06 1.10826e+06 1.10828e+06 1.10829e+06 1.10831e+06 1.10832e+06 1.10834e+06 1.10835e+06 1.10837e+06 1.10838e+06 1.1084e+06 1.10841e+06 1.10842e+06 1.10843e+06 1.10844e+06 1.10845e+06 1.10845e+06 1.10846e+06 1.10846e+06 1.10847e+06 1.10847e+06 1.10849e+06 1.1085e+06 1.10852e+06 1.10853e+06 1.10854e+06 1.10856e+06 1.10857e+06 1.10858e+06 1.10859e+06 1.1086e+06 1.1086e+06 1.1086e+06 1.10861e+06 1.10861e+06 1.10861e+06 1.10862e+06 1.10864e+06 1.10865e+06 1.10866e+06 1.10867e+06 1.10867e+06 1.10868e+06 1.10869e+06 1.1087e+06 1.1087e+06 1.1087e+06 1.1087e+06 1.10871e+06 1.10871e+06 1.10871e+06 1.10872e+06 1.10873e+06 1.10874e+06 1.10875e+06 1.10876e+06 1.10876e+06 1.10877e+06 1.10877e+06 1.10877e+06 1.10877e+06 1.10878e+06 1.10879e+06 1.10879e+06 1.1088e+06 1.1088e+06 1.1088e+06 1.10879e+06 1.10879e+06 1.10879e+06 1.10879e+06 1.10879e+06 1.10879e+06 1.10879e+06 1.10879e+06 1.10879e+06 1.10879e+06 1.10879e+06 1.10879e+06 1.10878e+06 1.10877e+06 1.10877e+06 1.10877e+06 1.10877e+06 1.10876e+06 1.10876e+06 1.10876e+06 1.10876e+06 1.10875e+06 1.10875e+06 1.10875e+06 1.10874e+06 1.10873e+06 1.10872e+06 1.10871e+06 1.1087e+06 1.1087e+06 1.1087e+06 1.1087e+06 1.10869e+06 1.10869e+06 1.10868e+06 1.10867e+06 1.10866e+06 1.10865e+06 1.10864e+06 1.10863e+06 1.10861e+06 1.1086e+06 1.10859e+06 1.10857e+06 1.10857e+06 1.10857e+06 1.10857e+06 1.10856e+06 1.10856e+06 1.10854e+06 1.10852e+06 1.10851e+06 1.10849e+06 1.10847e+06 1.10845e+06 1.10844e+06 1.10843e+06 1.10841e+06 1.10839e+06 1.10839e+06 1.10838e+06 1.10837e+06 1.10837e+06 1.10836e+06 1.10834e+06 1.10831e+06 1.10829e+06 1.10827e+06 1.10825e+06 1.10822e+06 1.1082e+06 1.10818e+06 1.10816e+06 1.10814e+06 1.10813e+06 1.10813e+06 1.10813e+06 1.10812e+06 1.10812e+06 1.10809e+06 1.10806e+06 1.10804e+06 1.10801e+06 1.10799e+06 1.10796e+06 1.10794e+06 1.10791e+06 1.10788e+06 1.10785e+06 1.10784e+06 1.10782e+06 1.10781e+06 1.10779e+06 1.10778e+06 1.10776e+06 1.10775e+06 1.10774e+06 1.10772e+06 1.10771e+06 1.10769e+06 1.10766e+06 1.10763e+06 1.10761e+06 1.10758e+06 1.10756e+06 1.10753e+06 1.10751e+06 1.10749e+06 1.10746e+06 1.10744e+06 1.10741e+06 1.10739e+06 1.10737e+06 1.10734e+06 1.10732e+06 1.10731e+06 1.10729e+06 1.10727e+06 1.10725e+06 1.10724e+06 1.10724e+06 1.10724e+06 1.10724e+06 1.10724e+06 1.10722e+06 1.1072e+06 1.10718e+06 1.10716e+06 1.10714e+06 1.10713e+06 1.10711e+06 1.10709e+06 1.10708e+06 1.10706e+06 1.10705e+06 1.10704e+06 1.10702e+06 1.10701e+06 1.107e+06 1.10699e+06 1.10698e+06 1.10697e+06 1.10696e+06 1.10695e+06 1.10694e+06 1.10694e+06 1.10693e+06 1.10692e+06 1.10692e+06 1.10691e+06 1.10691e+06 1.1069e+06 1.10689e+06 1.10689e+06 1.10689e+06 1.10688e+06 1.10688e+06 1.10687e+06 1.10687e+06 1.10687e+06 1.10687e+06 1.10686e+06 1.10686e+06 1.10686e+06 1.10686e+06 1.10685e+06 1.10685e+06 1.10685e+06 1.10685e+06 1.10685e+06 1.10684e+06 1.10684e+06 1.10684e+06 1.10684e+06 1.10684e+06 1.10684e+06 1.10684e+06 1.10684e+06 1.10683e+06 1.10683e+06 1.10683e+06 1.10683e+06 1.10683e+06 1.10683e+06 1.10683e+06 1.10683e+06 1.10683e+06 1.10683e+06 1.10683e+06 1.10683e+06 1.10683e+06 1.10683e+06 1.10683e+06 1.10683e+06 1.10683e+06 1.10683e+06 1.10683e+06 1.10683e+06 1.10683e+06 1.10683e+06 1.10683e+06 1.10683e+06 1.10683e+06 1.10683e+06 1.10683e+06 1.10683e+06 1.10683e+06 1.10683e+06 1.10683e+06 1.10683e+06 1.10683e+06 1.10683e+06 1.10683e+06 1.10683e+06 1.10683e+06 1.10683e+06 1.10683e+06 1.10683e+06 1.10683e+06 1.10683e+06 1.10683e+06 1.10683e+06 1.10683e+06 1.10683e+06 1.10683e+06 1.10683e+06 1.10683e+06 1.10683e+06 1.10683e+06 1.10683e+06 1.10683e+06 1.10683e+06 1.10683e+06 1.10683e+06 1.10683e+06 1.10683e+06 1.10683e+06 1.10683e+06 1.10683e+06 1.10683e+06 1.10683e+06 1.10683e+06 1.10683e+06 1.10683e+06 1.10684e+06 1.10684e+06 1.10684e+06 1.10684e+06 1.10684e+06 1.10684e+06 1.10684e+06 1.10684e+06 1.10684e+06 1.10684e+06 1.10684e+06 1.10684e+06 1.10684e+06 1.10684e+06 1.10684e+06 1.10684e+06 1.10684e+06 1.10684e+06 1.10684e+06 1.10684e+06 1.10684e+06 1.10684e+06 1.10684e+06 1.10684e+06 1.10684e+06 1.10684e+06 1.10684e+06 1.10684e+06 1.10684e+06 1.10684e+06 1.10684e+06 1.10684e+06 1.10684e+06 1.10684e+06 1.10684e+06 1.10684e+06 1.10684e+06 1.10684e+06 1.10684e+06 1.10684e+06 1.10684e+06 1.10684e+06 1.10684e+06 1.10684e+06 1.10684e+06 1.10684e+06 1.10684e+06 1.10684e+06 1.10684e+06 1.10684e+06 1.10684e+06 1.10684e+06 1.10684e+06 1.10684e+06 1.10684e+06 1.10684e+06 1.10684e+06 1.10684e+06 1.10684e+06 1.10684e+06 1.10684e+06 1.10684e+06 1.10684e+06 1.10684e+06 1.10684e+06 1.10684e+06 1.10684e+06 1.10684e+06 1.10684e+06 1.10685e+06 1.10685e+06 1.10685e+06 1.10685e+06 1.10685e+06 1.10685e+06 1.10685e+06 1.10685e+06 1.10685e+06 1.10685e+06 1.10685e+06 1.10685e+06 1.10685e+06 1.10685e+06 1.10685e+06 1.10685e+06 1.10685e+06 1.10685e+06 1.10685e+06 1.10685e+06 1.10685e+06 1.10685e+06 1.10685e+06 1.10685e+06 1.10685e+06 1.10685e+06 1.10685e+06 1.10685e+06 1.10685e+06 1.10685e+06 1.10685e+06 1.10685e+06 1.10685e+06 1.10685e+06 1.10685e+06 1.10685e+06 1.10685e+06 1.10685e+06 1.10685e+06 1.10685e+06 1.10685e+06 1.10685e+06 1.10685e+06 1.10685e+06 1.10685e+06 1.10685e+06 1.10685e+06 1.10685e+06 1.10685e+06 1.10685e+06 1.10685e+06 1.10685e+06 1.10685e+06 1.10685e+06 1.10685e+06 1.10685e+06 1.10685e+06 1.10685e+06 1.10685e+06 1.10685e+06 1.10685e+06 1.10685e+06 1.10685e+06 1.10685e+06 1.10685e+06 1.10685e+06 1.10685e+06 1.10685e+06 1.10685e+06 1.10685e+06 1.10685e+06 1.10685e+06 1.10685e+06 1.10685e+06 1.10685e+06 1.10685e+06 1.10685e+06 1.10685e+06 1.10685e+06 1.10685e+06 1.10685e+06 1.10685e+06 1.10685e+06 1.10685e+06 1.10685e+06 1.10685e+06 1.10685e+06 1.10685e+06 1.10685e+06 1.10685e+06 1.10685e+06 1.10685e+06 1.10685e+06 1.10685e+06 1.10685e+06 1.10685e+06 1.10685e+06 1.10685e+06 1.10685e+06 1.10685e+06 1.10685e+06 1.10685e+06 1.10685e+06 1.10685e+06 1.10685e+06 1.10685e+06 1.10685e+06 1.10685e+06 1.10685e+06 1.10685e+06 1.10685e+06 1.10685e+06 1.10685e+06 1.10685e+06 1.10685e+06 1.10685e+06 1.10685e+06 1.10685e+06 1.10685e+06 1.10685e+06 1.10685e+06 1.10685e+06 1.10685e+06 1.10685e+06 1.10685e+06 1.10685e+06 1.10685e+06 1.10685e+06 1.10685e+06 1.10685e+06 1.10685e+06 1.10685e+06 1.10685e+06 1.10685e+06 1.10685e+06 1.10685e+06 1.10685e+06 1.10685e+06 1.10685e+06 1.10685e+06 1.10685e+06 1.10685e+06 1.10685e+06 1.10685e+06 1.10685e+06 1.10685e+06 1.10685e+06 1.10685e+06 1.10685e+06 1.10685e+06 1.10685e+06 1.10685e+06 1.10685e+06 1.10685e+06 1.10685e+06 1.10685e+06 1.10685e+06 1.10685e+06 1.10685e+06 1.10685e+06 1.10685e+06 1.10685e+06 1.10685e+06 1.10685e+06 1.10685e+06 1.10685e+06 1.10685e+06 1.10685e+06 1.10685e+06 1.10685e+06 1.10685e+06 1.10685e+06 1.10685e+06 1.10685e+06 1.10685e+06 1.10685e+06 1.10685e+06 1.10685e+06 1.10685e+06 1.10685e+06 1.10685e+06 1.10685e+06 1.10685e+06 1.10685e+06 1.10685e+06 1.10685e+06 1.10685e+06 1.10685e+06 1.10685e+06 1.10685e+06 1.10685e+06 1.10685e+06 1.10685e+06 1.10685e+06 1.10685e+06 1.10685e+06 1.10685e+06 1.10685e+06 1.10685e+06 1.10685e+06 1.10685e+06 1.10685e+06 1.10685e+06 1.10685e+06 1.10685e+06 1.10685e+06 1.10685e+06 1.10685e+06 1.10685e+06 1.10685e+06 1.10685e+06 1.10685e+06 1.10685e+06 1.10685e+06 1.10685e+06 1.10685e+06 1.10685e+06 1.10685e+06 1.10685e+06 1.10685e+06 1.10685e+06 1.10685e+06 1.10685e+06 1.10685e+06 1.10685e+06 1.10685e+06 1.10685e+06 1.10685e+06 1.10685e+06 1.10685e+06 1.10685e+06 1.10685e+06 1.10685e+06 1.10685e+06 1.10685e+06 1.10685e+06 1.10685e+06 1.10685e+06 1.10685e+06 1.10685e+06 1.10685e+06 1.10685e+06 1.10685e+06 1.10685e+06 1.10685e+06 1.10685e+06 1.10685e+06 1.10685e+06 1.10685e+06 1.10685e+06 1.10685e+06 1.10685e+06 1.10685e+06 1.10685e+06 1.10685e+06 1.10685e+06 1.10685e+06 1.10685e+06 1.10685e+06 1.10685e+06 1.10685e+06 1.10685e+06 1.10685e+06 1.10685e+06 1.10685e+06 1.10685e+06 1.10685e+06 1.10685e+06 1.10685e+06 1.10685e+06 1.10685e+06 1.10685e+06 1.10685e+06 1.10685e+06 1.10685e+06 1.10685e+06 1.10685e+06 1.10685e+06 1.10685e+06 1.10685e+06 1.10685e+06 1.10685e+06 1.10685e+06 1.10685e+06 1.10685e+06 1.10685e+06 1.10685e+06 1.10685e+06 1.10685e+06 1.10685e+06 1.10685e+06 1.10685e+06 1.10685e+06 1.10685e+06 1.10685e+06 1.10685e+06 1.10685e+06 1.10685e+06 1.10685e+06 1.10685e+06 1.10685e+06 1.10685e+06 1.10685e+06 1.10685e+06 1.10685e+06 1.10685e+06 1.10685e+06 1.10685e+06 1.10685e+06 1.10685e+06 1.10685e+06 1.10685e+06 1.10685e+06 1.10685e+06 1.10685e+06 1.10685e+06 1.10685e+06 1.10685e+06 1.10685e+06 1.10685e+06 1.10685e+06 1.10685e+06 1.10685e+06 1.10685e+06 1.10685e+06 1.10685e+06 1.10685e+06 1.10686e+06 1.10686e+06 1.10686e+06 1.10686e+06 1.10686e+06 1.10686e+06 1.10685e+06 1.10685e+06 1.10685e+06 1.10685e+06 1.10685e+06 1.10685e+06 1.10685e+06 1.10685e+06 1.10685e+06 1.10685e+06 1.10685e+06 1.10685e+06 1.10685e+06 1.10685e+06 1.10685e+06 1.10685e+06 1.10685e+06 1.10685e+06 1.10685e+06 1.10685e+06 1.10685e+06 1.10685e+06 1.10685e+06 1.10685e+06 1.10685e+06 1.10685e+06 1.10685e+06 1.10685e+06 1.10685e+06 1.10685e+06 1.10685e+06 1.10685e+06 1.10685e+06 1.10685e+06 1.10685e+06 1.10685e+06 1.10685e+06 1.10685e+06 1.10685e+06 1.10685e+06 1.10685e+06 1.10685e+06 1.10685e+06 1.10685e+06 1.10685e+06 1.10685e+06 1.10685e+06 1.10685e+06 1.10685e+06 1.10685e+06 1.10685e+06 1.10685e+06 1.10685e+06 1.10685e+06 1.10685e+06 1.10685e+06 1.10685e+06 1.10685e+06 1.10685e+06 1.10685e+06 1.10685e+06 1.10685e+06 1.10685e+06 1.10685e+06 1.10685e+06 1.10685e+06 1.10685e+06 1.10685e+06 1.10685e+06 1.10685e+06 1.10685e+06 1.10685e+06 1.10685e+06 1.10685e+06 1.10685e+06 1.10685e+06 1.10685e+06 1.10685e+06 1.10685e+06 1.10685e+06 1.10685e+06 1.10685e+06 1.10685e+06 1.10685e+06 1.10685e+06 1.10685e+06 1.10685e+06 1.10685e+06 1.10685e+06 1.10685e+06 1.10685e+06 1.10685e+06 1.10685e+06 1.10685e+06 1.10685e+06 1.10685e+06 1.10685e+06 1.10685e+06 1.10685e+06 1.10685e+06 1.10685e+06 1.10685e+06 1.10685e+06 1.10685e+06 1.10685e+06 1.10685e+06 1.10685e+06 1.10685e+06 1.10685e+06 1.10685e+06 1.10685e+06 1.10685e+06 1.10685e+06 1.10685e+06 1.10685e+06 1.10685e+06 1.10685e+06 1.10685e+06 1.10685e+06 1.10685e+06 1.10685e+06 1.10685e+06 1.10685e+06 1.10685e+06 1.10685e+06 1.10685e+06 1.10685e+06 1.10685e+06 1.10685e+06 1.10685e+06 1.10685e+06 1.10685e+06 1.10685e+06 1.10685e+06 1.10685e+06 1.10685e+06 1.10685e+06 1.10685e+06 1.10685e+06 1.10685e+06 1.10685e+06 1.10685e+06 1.10685e+06 1.10685e+06 1.10685e+06 1.10685e+06 1.10685e+06 1.10685e+06 1.10686e+06 1.10686e+06 1.10686e+06 1.10686e+06 1.10686e+06 1.10686e+06 1.10686e+06 1.10686e+06 1.10686e+06 1.10686e+06 1.10686e+06 1.10686e+06 1.10686e+06 1.10686e+06 1.10686e+06 1.10686e+06 1.10686e+06 1.10686e+06 1.10686e+06 1.10686e+06 1.10686e+06 1.10686e+06 1.10686e+06 1.10686e+06 1.10686e+06 1.10686e+06 1.10686e+06 1.10686e+06 1.10686e+06 1.10686e+06 1.10686e+06 1.10687e+06 1.10687e+06 1.10687e+06 1.10687e+06 1.10687e+06 1.10687e+06 1.10687e+06 1.10687e+06 1.10687e+06 1.10687e+06 1.10687e+06 1.10687e+06 1.10687e+06 1.10687e+06 1.10688e+06 1.10688e+06 1.10688e+06 1.10688e+06 1.10688e+06 1.10688e+06 1.10688e+06 1.10688e+06 1.10688e+06 1.10688e+06 1.10688e+06 1.10689e+06 1.10689e+06 1.10689e+06 1.10689e+06 1.10689e+06 1.10689e+06 1.10689e+06 1.10689e+06 1.10689e+06 1.1069e+06 1.1069e+06 1.1069e+06 1.1069e+06 1.1069e+06 1.1069e+06 1.1069e+06 1.10691e+06 1.10691e+06 1.10691e+06 1.10691e+06 1.10691e+06 1.10691e+06 1.10691e+06 1.10692e+06 1.10692e+06 1.10692e+06 1.10692e+06 1.10692e+06 1.10693e+06 1.10693e+06 1.10693e+06 1.10693e+06 1.10693e+06 1.10694e+06 1.10694e+06 1.10694e+06 1.10694e+06 1.10694e+06 1.10695e+06 1.10695e+06 1.10695e+06 1.10695e+06 1.10696e+06 1.10696e+06 1.10696e+06 1.10696e+06 1.10696e+06 1.10697e+06 1.10697e+06 1.10697e+06 1.10698e+06 1.10698e+06 1.10698e+06 1.10699e+06 1.10699e+06 1.10699e+06 1.107e+06 1.107e+06 1.107e+06 1.107e+06 1.10701e+06 1.10701e+06 1.10702e+06 1.10702e+06 1.10702e+06 1.10703e+06 1.10703e+06 1.10704e+06 1.10704e+06 1.10705e+06 1.10705e+06 1.10706e+06 1.10706e+06 1.10707e+06 1.10707e+06 1.10708e+06 1.10708e+06 1.10709e+06 1.10709e+06 1.1071e+06 1.1071e+06 1.10711e+06 1.10712e+06 1.10712e+06 1.10713e+06 1.10714e+06 1.10714e+06 1.10715e+06 1.10716e+06 1.10717e+06 1.10718e+06 1.10718e+06 1.10719e+06 1.1072e+06 1.10721e+06 1.10722e+06 1.10723e+06 1.10724e+06 1.10725e+06 1.10726e+06 1.10727e+06 1.10728e+06 1.10729e+06 1.1073e+06 1.10732e+06 1.10733e+06 1.10734e+06 1.10736e+06 1.10737e+06 1.10738e+06 1.1074e+06 1.10742e+06 1.10743e+06 1.10745e+06 1.10746e+06 1.10748e+06 1.1075e+06 1.10752e+06 1.10754e+06 1.10755e+06 1.10756e+06 1.10758e+06 1.10759e+06 1.1076e+06 1.10761e+06 1.10762e+06 1.10764e+06 1.10765e+06 1.10766e+06 1.10769e+06 1.10771e+06 1.10774e+06 1.10776e+06 1.10778e+06 1.10779e+06 1.10782e+06 1.10784e+06 1.10786e+06 1.1079e+06 1.10793e+06 1.10797e+06 1.10801e+06 1.10805e+06 1.1081e+06 1.10815e+06 1.1082e+06 1.10825e+06 1.1083e+06 1.10835e+06 1.1084e+06 1.10846e+06 1.10851e+06 1.10857e+06 1.10862e+06 1.10864e+06 1.10866e+06 1.10868e+06 1.1087e+06 1.10872e+06 1.10873e+06 1.10873e+06 1.10874e+06 1.10875e+06 1.10875e+06 1.1088e+06 1.10884e+06 1.10889e+06 1.10893e+06 1.10897e+06 1.10906e+06 1.10915e+06 1.10924e+06 1.10933e+06 1.10937e+06 1.10951e+06 1.10962e+06 1.10972e+06 1.10979e+06 1.10984e+06 1.10993e+06 1.10998e+06 1.11001e+06 1.11004e+06 1.11003e+06 1.11005e+06 1.11008e+06 1.1101e+06 1.1101e+06 1.11006e+06 1.11009e+06 1.11012e+06 1.11021e+06 1.11039e+06 1.11056e+06 1.11056e+06 1.11055e+06 1.11048e+06 1.11068e+06 1.111e+06 1.11047e+06 1.10993e+06 1.10968e+06 1.10943e+06 1.10919e+06 1.10841e+06 1.10787e+06 1.1077e+06 1.10747e+06 1.10723e+06 1.10719e+06 1.10719e+06 1.10719e+06 1.10716e+06 1.10707e+06 1.10705e+06 1.10703e+06 1.10701e+06 1.10699e+06 1.10699e+06 1.10697e+06 1.10695e+06 1.10694e+06 1.10694e+06 1.10692e+06 1.10692e+06 1.10691e+06 1.10691e+06 1.1069e+06 1.10688e+06 1.10688e+06 1.10687e+06 1.10686e+06 1.10686e+06 1.10685e+06 1.10685e+06 1.10684e+06 1.10684e+06 1.10684e+06 1.10684e+06 1.10684e+06 1.10683e+06 1.10683e+06 1.10683e+06 1.10683e+06 1.10683e+06 1.10683e+06 1.10683e+06 1.10683e+06 1.10683e+06 1.10683e+06 1.10683e+06 1.10683e+06 1.10683e+06 1.10683e+06 1.10683e+06 1.10683e+06 1.10683e+06 1.10683e+06 1.10683e+06 1.10683e+06 1.10683e+06 1.10684e+06 1.10684e+06 1.10684e+06 1.10684e+06 1.10684e+06 1.10684e+06 1.10684e+06 1.10684e+06 1.10684e+06 1.10684e+06 1.10684e+06 1.10684e+06 1.10684e+06 1.10684e+06 1.10684e+06 1.10684e+06 1.10684e+06 1.10684e+06 1.10684e+06 1.10684e+06 1.10684e+06 1.10684e+06 1.10684e+06 1.10684e+06 1.10684e+06 1.10684e+06 1.10684e+06 1.10684e+06 1.10684e+06 1.10683e+06 1.10683e+06 1.10683e+06 1.10683e+06 1.10682e+06 1.10682e+06 1.10682e+06 1.10681e+06 1.10681e+06 1.10679e+06 1.10678e+06 1.10678e+06 1.10677e+06 1.10676e+06 1.10674e+06 1.10673e+06 1.10672e+06 1.10672e+06 1.10672e+06 1.1067e+06 1.10665e+06 1.1066e+06 1.10655e+06 1.10652e+06 1.10651e+06 1.10649e+06 1.10648e+06 1.10646e+06 1.10649e+06 1.10621e+06 1.10601e+06 1.10582e+06 1.10522e+06 1.10425e+06 1.10392e+06 1.10358e+06 1.10322e+06 1.10285e+06 1.10236e+06 1.10236e+06 1.10236e+06 1.10236e+06 1.10236e+06 1.10236e+06 1.10234e+06 1.10239e+06 1.10244e+06 1.10251e+06 1.10259e+06 1.1026e+06 1.10261e+06 1.10262e+06 1.10263e+06 1.10264e+06 1.10268e+06 1.10276e+06 1.10288e+06 1.10301e+06 1.10313e+06 1.10318e+06 1.10327e+06 1.10337e+06 1.10347e+06 1.10367e+06 1.10368e+06 1.10368e+06 1.10368e+06 1.10368e+06 1.10369e+06 1.10378e+06 1.10388e+06 1.10399e+06 1.10409e+06 1.10419e+06 1.10427e+06 1.10435e+06 1.10443e+06 1.1045e+06 1.10458e+06 1.10463e+06 1.10469e+06 1.10476e+06 1.10482e+06 1.10489e+06 1.10492e+06 1.10496e+06 1.10499e+06 1.10502e+06 1.10506e+06 1.10508e+06 1.10509e+06 1.10511e+06 1.10513e+06 1.10514e+06 1.10517e+06 1.10521e+06 1.10524e+06 1.10527e+06 1.10529e+06 1.1053e+06 1.10532e+06 1.10534e+06 1.10538e+06 1.10541e+06 1.10543e+06 1.10546e+06 1.10548e+06 1.10551e+06 1.10554e+06 1.10555e+06 1.10556e+06 1.10557e+06 1.10558e+06 1.10559e+06 1.1056e+06 1.10561e+06 1.10562e+06 1.10563e+06 1.10564e+06 1.10565e+06 1.10567e+06 1.10568e+06 1.1057e+06 1.10571e+06 1.10572e+06 1.10573e+06 1.10575e+06 1.10576e+06 1.10577e+06 1.10578e+06 1.10579e+06 1.10579e+06 1.1058e+06 1.10581e+06 1.10581e+06 1.10582e+06 1.10582e+06 1.10582e+06 1.10583e+06 1.10583e+06 1.10583e+06 1.10584e+06 1.10584e+06 1.10584e+06 1.10585e+06 1.10585e+06 1.10586e+06 1.10586e+06 1.10586e+06 1.10587e+06 1.10587e+06 1.10587e+06 1.10588e+06 1.10588e+06 1.10588e+06 1.10588e+06 1.10588e+06 1.10589e+06 1.10589e+06 1.10589e+06 1.10589e+06 1.10589e+06 1.10589e+06 1.10589e+06 1.10589e+06 1.10589e+06 1.10589e+06 1.10589e+06 1.10589e+06 1.10589e+06 1.10589e+06 1.10589e+06 1.10589e+06 1.10589e+06 1.10589e+06 1.10589e+06 1.10589e+06 1.10588e+06 1.10588e+06 1.10588e+06 1.10588e+06 1.10588e+06 1.10588e+06 1.10588e+06 1.10588e+06 1.10588e+06 1.10588e+06 1.10588e+06 1.10588e+06 1.10587e+06 1.10587e+06 1.10587e+06 1.10587e+06 1.10586e+06 1.10586e+06 1.10586e+06 1.10586e+06 1.10585e+06 1.10585e+06 1.10585e+06 1.10585e+06 1.10585e+06 1.10585e+06 1.10585e+06 1.10584e+06 1.10584e+06 1.10584e+06 1.10584e+06 1.10584e+06 1.10583e+06 1.10583e+06 1.10583e+06 1.10582e+06 1.10582e+06 1.10582e+06 1.10582e+06 1.10581e+06 1.10581e+06 1.10581e+06 1.10581e+06 1.10581e+06 1.10581e+06 1.10581e+06 1.10581e+06 1.1058e+06 1.1058e+06 1.1058e+06 1.1058e+06 1.10579e+06 1.10579e+06 1.10579e+06 1.10578e+06 1.10578e+06 1.10578e+06 1.10578e+06 1.10577e+06 1.10577e+06 1.10577e+06 1.10577e+06 1.10577e+06 1.10577e+06 1.10576e+06 1.10576e+06 1.10576e+06 1.10576e+06 1.10576e+06 1.10575e+06 1.10575e+06 1.10575e+06 1.10575e+06 1.10574e+06 1.10574e+06 1.10574e+06 1.10574e+06 1.10573e+06 1.10573e+06 1.10573e+06 1.10573e+06 1.10573e+06 1.10573e+06 1.10573e+06 1.10573e+06 1.10573e+06 1.10573e+06 1.10574e+06 1.10574e+06 1.10574e+06 1.10573e+06 1.10571e+06 1.10578e+06 1.10579e+06 1.10576e+06 1.10572e+06 1.10568e+06 1.10568e+06 1.10568e+06 1.10567e+06 1.10566e+06 1.10565e+06 1.10565e+06 1.10564e+06 1.10564e+06 1.10564e+06 1.10563e+06 1.10563e+06 1.10563e+06 1.10563e+06 1.10562e+06 1.10562e+06 1.10562e+06 1.10562e+06 1.10563e+06 1.10562e+06 1.10562e+06 1.10562e+06 1.10561e+06 1.10562e+06 1.10562e+06 1.10563e+06 1.10563e+06 1.10563e+06 1.10563e+06 1.10563e+06 1.10563e+06 1.10563e+06 1.10563e+06 1.10563e+06 1.10563e+06 1.10563e+06 1.10563e+06 1.10563e+06 1.10564e+06 1.10564e+06 1.10565e+06 1.10565e+06 1.10565e+06 1.10566e+06 1.10566e+06 1.10567e+06 1.10567e+06 1.10567e+06 1.10567e+06 1.10567e+06 1.10567e+06 1.10568e+06 1.10568e+06 1.10569e+06 1.10569e+06 1.1057e+06 1.10571e+06 1.10571e+06 1.10572e+06 1.10573e+06 1.10574e+06 1.10574e+06 1.10575e+06 1.10576e+06 1.10576e+06 1.10577e+06 1.10577e+06 1.10577e+06 1.10578e+06 1.10578e+06 1.10578e+06 1.10579e+06 1.10579e+06 1.1058e+06 1.10581e+06 1.10582e+06 1.10583e+06 1.10584e+06 1.10585e+06 1.10586e+06 1.10587e+06 1.10588e+06 1.10589e+06 1.10591e+06 1.10592e+06 1.10593e+06 1.10593e+06 1.10594e+06 1.10595e+06 1.10596e+06 1.10597e+06 1.10597e+06 1.10597e+06 1.10597e+06 1