# vtk DataFile Version 2.0
track0
ASCII
DATASET POLYDATA
POINTS 15930 float
-1.001 -0.05 0.0011
-0.998603 -0.05 0.0011
-0.996205 -0.05 0.0011
-0.993808 -0.05 0.0011
-0.991411 -0.05 0.0011
-0.989014 -0.05 0.0011
-0.986517 -0.05 0.0011
-0.984021 -0.05 0.0011
-0.981525 -0.05 0.0011
-0.979029 -0.05 0.0011
-0.976533 -0.05 0.0011
-0.974037 -0.05 0.0011
-0.971541 -0.05 0.0011
-0.969045 -0.05 0.0011
-0.966549 -0.05 0.0011
-0.964053 -0.05 0.0011
-0.961556 -0.05 0.0011
-0.95906 -0.05 0.0011
-0.956564 -0.05 0.0011
-0.954068 -0.05 0.0011
-0.951571 -0.05 0.0011
-0.949075 -0.05 0.0011
-0.946579 -0.05 0.0011
-0.944083 -0.05 0.0011
-0.941586 -0.05 0.0011
-0.93909 -0.05 0.0011
-0.936594 -0.05 0.0011
-0.934097 -0.05 0.0011
-0.931601 -0.05 0.0011
-0.929105 -0.05 0.0011
-0.926609 -0.05 0.0011
-0.924112 -0.05 0.0011
-0.921616 -0.05 0.0011
-0.919119 -0.05 0.0011
-0.916623 -0.05 0.0011
-0.914127 -0.05 0.0011
-0.91163 -0.05 0.0011
-0.909133 -0.05 0.0011
-0.906636 -0.05 0.0011
-0.904139 -0.05 0.0011
-0.901642 -0.05 0.0011
-0.900393 -0.05 0.0011
-0.899145 -0.05 0.0011
-0.897897 -0.05 0.0011
-0.896649 -0.05 0.0011
-0.895401 -0.05 0.0011
-0.894153 -0.05 0.0011
-0.892905 -0.05 0.0011
-0.891657 -0.05 0.0011
-0.890408 -0.05 0.0011
-0.88916 -0.05 0.0011
-0.887912 -0.05 0.0011
-0.886664 -0.05 0.0011
-0.885416 -0.05 0.0011
-0.884168 -0.05 0.0011
-0.882919 -0.05 0.0011
-0.881671 -0.05 0.0011
-0.880423 -0.05 0.0011
-0.879175 -0.05 0.0011
-0.877927 -0.05 0.0011
-0.876678 -0.05 0.0011
-0.87543 -0.05 0.0011
-0.874182 -0.05 0.0011
-0.872934 -0.05 0.0011
-0.871685 -0.05 0.0011
-0.870437 -0.05 0.0011
-0.869189 -0.05 0.0011
-0.867941 -0.05 0.0011
-0.866692 -0.05 0.0011
-0.865444 -0.05 0.0011
-0.864196 -0.05 0.0011
-0.862947 -0.05 0.0011
-0.861699 -0.05 0.0011
-0.86045 -0.05 0.0011
-0.859202 -0.05 0.0011
-0.857953 -0.05 0.0011
-0.856705 -0.05 0.0011
-0.855456 -0.05 0.0011
-0.854207 -0.05 0.0011
-0.852959 -0.05 0.0011
-0.85171 -0.05 0.0011
-0.850461 -0.05 0.0011
-0.849212 -0.05 0.0011
-0.847963 -0.05 0.0011
-0.846715 -0.05 0.0011
-0.845466 -0.05 0.0011
-0.844216 -0.05 0.0011
-0.842967 -0.05 0.0011
-0.841718 -0.05 0.0011
-0.840468 -0.05 0.0011
-0.839219 -0.05 0.0011
-0.837969 -0.05 0.0011
-0.836718 -0.05 0.0011
-0.835468 -0.05 0.0011
-0.834218 -0.05 0.0011
-0.832968 -0.05 0.0011
-0.831715 -0.05 0.0011
-0.830463 -0.05 0.0011
-0.829211 -0.05 0.0011
-0.827959 -0.05 0.0011
-0.826706 -0.05 0.0011
-0.825454 -0.05 0.0011
-0.824202 -0.05 0.0011
-0.822949 -0.05 0.0011
-0.821697 -0.05 0.0011
-0.820445 -0.05 0.0011
-0.819191 -0.05 0.0011
-0.817937 -0.05 0.0011
-0.816684 -0.05 0.0011
-0.81543 -0.05 0.0011
-0.814177 -0.05 0.0011
-0.812921 -0.05 0.0011
-0.811664 -0.05 0.0011
-0.810408 -0.05 0.0011
-0.809152 -0.05 0.0011
-0.807896 -0.05 0.0011
-0.806637 -0.05 0.0011
-0.805377 -0.05 0.0011
-0.804118 -0.05 0.0011
-0.802859 -0.05 0.0011
-0.801599 -0.05 0.0011
-0.800335 -0.05 0.0011
-0.799072 -0.05 0.0011
-0.797808 -0.05 0.0011
-0.796544 -0.05 0.0011
-0.79528 -0.05 0.0011
-0.794009 -0.05 0.0011
-0.792738 -0.05 0.0011
-0.791467 -0.05 0.0011
-0.790196 -0.05 0.0011
-0.788925 -0.05 0.0011
-0.787642 -0.05 0.0011
-0.786359 -0.05 0.0011
-0.785076 -0.05 0.0011
-0.783794 -0.05 0.0011
-0.782511 -0.05 0.0011
-0.781208 -0.05 0.0011
-0.779905 -0.05 0.0011
-0.778603 -0.05 0.0011
-0.7773 -0.05 0.0011
-0.775997 -0.05 0.0011
-0.774669 -0.05 0.0011
-0.773341 -0.05 0.0011
-0.772013 -0.05 0.0011
-0.770685 -0.05 0.0011
-0.769357 -0.05 0.0011
-0.769022 -0.05 0.0011
-0.768686 -0.05 0.0011
-0.768351 -0.05 0.0011
-0.768016 -0.05 0.0011
-0.76768 -0.05 0.0011
-0.766707 -0.05 0.0011
-0.765734 -0.05 0.0011
-0.764761 -0.05 0.0011
-0.763788 -0.05 0.0011
-0.762814 -0.05 0.0011
-0.762419 -0.05 0.0011
-0.762024 -0.05 0.0011
-0.761629 -0.05 0.0011
-0.761234 -0.05 0.0011
-0.760839 -0.05 0.0011
-1.001 -0.05 0.0537316
-0.998597 -0.05 0.0537316
-0.996193 -0.05 0.0537316
-0.99379 -0.05 0.0537316
-0.991387 -0.05 0.0537316
-0.988984 -0.05 0.0537316
-0.986486 -0.05 0.0537316
-0.983989 -0.05 0.0537316
-0.981492 -0.05 0.0537316
-0.978995 -0.05 0.0537316
-0.976498 -0.05 0.0537316
-0.974002 -0.05 0.0537316
-0.971505 -0.05 0.0537316
-0.969009 -0.05 0.0537316
-0.966512 -0.05 0.0537316
-0.964016 -0.05 0.0537316
-0.961519 -0.05 0.0537316
-0.959023 -0.05 0.0537316
-0.956526 -0.05 0.0537316
-0.95403 -0.05 0.0537316
-0.951533 -0.05 0.0537316
-0.949037 -0.05 0.0537316
-0.94654 -0.05 0.0537316
-0.944044 -0.05 0.0537316
-0.941547 -0.05 0.0537316
-0.93905 -0.05 0.0537316
-0.936554 -0.05 0.0537316
-0.934057 -0.05 0.0537316
-0.931561 -0.05 0.0537316
-0.929064 -0.05 0.0537316
-0.926568 -0.05 0.0537316
-0.924071 -0.05 0.0537316
-0.921575 -0.05 0.0537316
-0.919078 -0.05 0.0537316
-0.916581 -0.05 0.0537316
-0.914085 -0.05 0.0537316
-0.911588 -0.05 0.0537316
-0.909091 -0.05 0.0537316
-0.906593 -0.05 0.0537316
-0.904096 -0.05 0.0537316
-0.901599 -0.05 0.0537316
-0.900351 -0.05 0.0537316
-0.899102 -0.05 0.0537316
-0.897854 -0.05 0.0537316
-0.896605 -0.05 0.0537316
-0.895357 -0.05 0.0537316
-0.894108 -0.05 0.0537316
-0.89286 -0.05 0.0537316
-0.891611 -0.05 0.0537316
-0.890362 -0.05 0.0537316
-0.889114 -0.05 0.0537316
-0.887865 -0.05 0.0537316
-0.886617 -0.05 0.0537316
-0.885368 -0.05 0.0537316
-0.88412 -0.05 0.0537316
-0.882871 -0.05 0.0537316
-0.881622 -0.05 0.0537316
-0.880373 -0.05 0.0537316
-0.879125 -0.05 0.0537316
-0.877876 -0.05 0.0537316
-0.876627 -0.05 0.0537316
-0.875378 -0.05 0.0537316
-0.87413 -0.05 0.0537316
-0.872881 -0.05 0.0537316
-0.871632 -0.05 0.0537316
-0.870384 -0.05 0.0537316
-0.869135 -0.05 0.0537316
-0.867886 -0.05 0.0537316
-0.866637 -0.05 0.0537316
-0.865388 -0.05 0.0537316
-0.864139 -0.05 0.0537316
-0.86289 -0.05 0.0537316
-0.86164 -0.05 0.0537316
-0.860391 -0.05 0.0537316
-0.859141 -0.05 0.0537316
-0.857891 -0.05 0.0537316
-0.856642 -0.05 0.0537316
-0.855392 -0.05 0.0537316
-0.854142 -0.05 0.0537316
-0.852893 -0.05 0.0537316
-0.851643 -0.05 0.0537316
-0.850393 -0.05 0.0537316
-0.849142 -0.05 0.0537316
-0.847892 -0.05 0.0537316
-0.846642 -0.05 0.0537316
-0.845391 -0.05 0.0537316
-0.844139 -0.05 0.0537316
-0.842886 -0.05 0.0537316
-0.841634 -0.05 0.0537316
-0.840381 -0.05 0.0537316
-0.839129 -0.05 0.0537316
-0.837875 -0.05 0.0537316
-0.836622 -0.05 0.0537316
-0.835368 -0.05 0.0537316
-0.834114 -0.05 0.0537316
-0.83286 -0.05 0.0537316
-0.831606 -0.05 0.0537316
-0.830352 -0.05 0.0537316
-0.829098 -0.05 0.0537316
-0.827844 -0.05 0.0537316
-0.82659 -0.05 0.0537316
-0.825334 -0.05 0.0537316
-0.824077 -0.05 0.0537316
-0.822821 -0.05 0.0537316
-0.821565 -0.05 0.0537316
-0.820309 -0.05 0.0537316
-0.81905 -0.05 0.0537316
-0.817792 -0.05 0.0537316
-0.816533 -0.05 0.0537316
-0.815274 -0.05 0.0537316
-0.814015 -0.05 0.0537316
-0.812754 -0.05 0.0537316
-0.811492 -0.05 0.0537316
-0.810231 -0.05 0.0537316
-0.808969 -0.05 0.0537316
-0.807707 -0.05 0.0537316
-0.806441 -0.05 0.0537316
-0.805174 -0.05 0.0537316
-0.803907 -0.05 0.0537316
-0.80264 -0.05 0.0537316
-0.801373 -0.05 0.0537316
-0.800102 -0.05 0.0537316
-0.798831 -0.05 0.0537316
-0.797561 -0.05 0.0537316
-0.79629 -0.05 0.0537316
-0.795019 -0.05 0.0537316
-0.793744 -0.05 0.0537316
-0.792469 -0.05 0.0537316
-0.791194 -0.05 0.0537316
-0.78992 -0.05 0.0537316
-0.788645 -0.05 0.0537316
-0.787366 -0.05 0.0537316
-0.786087 -0.05 0.0537316
-0.784808 -0.05 0.0537316
-0.783529 -0.05 0.0537316
-0.78225 -0.05 0.0537316
-0.780968 -0.05 0.0537316
-0.779686 -0.05 0.0537316
-0.778405 -0.05 0.0537316
-0.777123 -0.05 0.0537316
-0.775841 -0.05 0.0537316
-0.774557 -0.05 0.0537316
-0.773274 -0.05 0.0537316
-0.77199 -0.05 0.0537316
-0.770706 -0.05 0.0537316
-0.769422 -0.05 0.0537316
-0.768132 -0.05 0.0537316
-0.766842 -0.05 0.0537316
-0.765552 -0.05 0.0537316
-0.764262 -0.05 0.0537316
-0.762972 -0.05 0.0537316
-0.762062 -0.05 0.0537316
-0.761152 -0.05 0.0537316
-0.760241 -0.05 0.0537316
-0.759331 -0.05 0.0537316
-0.75842 -0.05 0.0537316
-0.757959 -0.05 0.0537316
-0.757498 -0.05 0.0537316
-0.757036 -0.05 0.0537316
-0.756575 -0.05 0.0537316
-0.756114 -0.05 0.0537316
-0.755997 -0.05 0.0537316
-0.755881 -0.05 0.0537316
-0.755764 -0.05 0.0537316
-0.755648 -0.05 0.0537316
-0.755531 -0.05 0.0537316
-0.754821 -0.05 0.0537316
-0.75411 -0.05 0.0537316
-0.7534 -0.05 0.0537316
-0.752689 -0.05 0.0537316
-0.751978 -0.05 0.0537316
-0.751536 -0.05 0.0537316
-0.751094 -0.05 0.0537316
-0.750653 -0.05 0.0537316
-0.750211 -0.05 0.0537316
-0.749769 -0.05 0.0537316
-0.749767 -0.05 0.0537316
-0.749766 -0.05 0.0537316
-0.749765 -0.05 0.0537316
-0.749764 -0.05 0.0537316
-0.749762 -0.05 0.0537316
-1.001 -0.05 0.106363
-0.998587 -0.05 0.106363
-0.996173 -0.05 0.106363
-0.99376 -0.05 0.106363
-0.991347 -0.05 0.106363
-0.988933 -0.05 0.106363
-0.986436 -0.05 0.106363
-0.983939 -0.05 0.106363
-0.981443 -0.05 0.106363
-0.978946 -0.05 0.106363
-0.976449 -0.05 0.106363
-0.973952 -0.05 0.106363
-0.971455 -0.05 0.106363
-0.968958 -0.05 0.106363
-0.966461 -0.05 0.106363
-0.963964 -0.05 0.106363
-0.961467 -0.05 0.106363
-0.95897 -0.05 0.106363
-0.956473 -0.05 0.106363
-0.953976 -0.05 0.106363
-0.951479 -0.05 0.106363
-0.94898 -0.05 0.106363
-0.946481 -0.05 0.106363
-0.943983 -0.05 0.106363
-0.941484 -0.05 0.106363
-0.938985 -0.05 0.106363
-0.936487 -0.05 0.106363
-0.933989 -0.05 0.106363
-0.93149 -0.05 0.106363
-0.928992 -0.05 0.106363
-0.926494 -0.05 0.106363
-0.923994 -0.05 0.106363
-0.921494 -0.05 0.106363
-0.918994 -0.05 0.106363
-0.916494 -0.05 0.106363
-0.913994 -0.05 0.106363
-0.911495 -0.05 0.106363
-0.908997 -0.05 0.106363
-0.906498 -0.05 0.106363
-0.903999 -0.05 0.106363
-0.901501 -0.05 0.106363
-0.898998 -0.05 0.106363
-0.896495 -0.05 0.106363
-0.893992 -0.05 0.106363
-0.891489 -0.05 0.106363
-0.888986 -0.05 0.106363
-0.886484 -0.05 0.106363
-0.883982 -0.05 0.106363
-0.881481 -0.05 0.106363
-0.878979 -0.05 0.106363
-0.876477 -0.05 0.106363
-0.873975 -0.05 0.106363
-0.871474 -0.05 0.106363
-0.868973 -0.05 0.106363
-0.866472 -0.05 0.106363
-0.863971 -0.05 0.106363
-0.861471 -0.05 0.106363
-0.85897 -0.05 0.106363
-0.85647 -0.05 0.106363
-0.85397 -0.05 0.106363
-0.85147 -0.05 0.106363
-0.848968 -0.05 0.106363
[...]
POINT_DATA 15930
 FIELD attributes 2
p 1 15930 float
1.10685e+06 1.10685e+06 1.10685e+06 1.10685e+06 1.10685e+06 1.10685e+06 1.10685e+06 1.10685e+06 1.10685e+06 1.10685e+06 1.10685e+06 1.10685e+06 1.10685e+06 1.10685e+06 1.10685e+06 1.10685e+06 1.10685e+06 1.10685e+06 1.10685e+06 1.10685e+06 1.10685e+06 1.10685e+06 1.10685e+06 1.10685e+06 1.10685e+06 1.10685e+06 1.10685e+06 1.10685e+06 1.10685e+06 1.10685e+06 1.10685e+06 1.10685e+06 1.10685e+06 1.10685e+06 1.10685e+06 1.10685e+06 1.10685e+06 1.10685e+06 1.10685e+06 1.10685e+06 1.10685e+06 1.10685e+06 1.10685e+06 1.10685e+06 1.10685e+06 1.10685e+06 1.10685e+06 1.10685e+06 1.10685e+06 1.10685e+06 1.10685e+06 1.10685e+06 1.10685e+06 1.10685e+06 1.10685e+06 1.10685e+06 1.10685e+06 1.10685e+06 1.10685e+06 1.10685e+06 1.10685e+06 1.10685e+06 1.10685e+06 1.10685e+06 1.10685e+06 1.10685e+06 1.10685e+06 1.10685e+06 1.10685e+06 1.10685e+06 1.10685e+06 1.10685e+06 1.10685e+06 1.10685e+06 1.10685e+06 1.10685e+06 1.10685e+06 1.10685e+06 1.10685e+06 1.10685e+06 1.10685e+06 1.10685e+06 1.10685e+06 1.10685e+06 1.10685e+06 1.10685e+06 1.10685e+06 1.10685e+06 1.10685e+06 1.10685e+06 1.10685e+06 1.10685e+06 1.10685e+06 1.10685e+06 1.10685e+06 1.10685e+06 1.10685e+06 1.10685e+06 1.10685e+06 1.10685e+06 1.10685e+06 1.10685e+06 1.10685e+06 1.10685e+06 1.10685e+06 1.10685e+06 1.10685e+06 1.10685e+06 1.10685e+06 1.10685e+06 1.10685e+06 1.10685e+06 1.10685e+06 1.10685e+06 1.10685e+06 1.10685e+06 1.10685e+06 1.10685e+06 1.10685e+06 1.10685e+06 1.10685e+06 1.10685e+06 1.10685e+06 1.10685e+06 1.10685e+06 1.10685e+06 1.10685e+06 1.10685e+06 1.10685e+06 1.10685e+06 1.10685e+06 1.10685e+06 1.10685e+06 1.10685e+06 1.10685e+06 1.10685e+06 1.10685e+06 1.10685e+06 1.10685e+06 1.10685e+06 1.10685e+06 1.10685e+06 1.10685e+06 1.10685e+06 1.10685e+06 1.10685e+06 1.10685e+06 1.10685e+06 1.10685e+06 1.10685e+06 1.10685e+06 1.10685e+06 1.10685e+06 1.10685e+06 1.10685e+06 1.10685e+06 1.10685e+06 1.10685e+06 1.10685e+06 1.10685e+06 1.10685e+06
1.10685e+06 1.10685e+06 1.10685e+06 1.10685e+06 1.10685e+06 1.10685e+06 1.10685e+06 1.10685e+06 1.10685e+06 1.10685e+06 1.10685e+06 1.10685e+06 1.10685e+06 1.10685e+06 1.10685e+06 1.10685e+06 1.10685e+06 1.10685e+06 1.10685e+06 1.10685e+06 1.10685e+06 1.10685e+06 1.10685e+06 1.10685e+06 1.10685e+06 1.10685e+06 1.10685e+06 1.10685e+06 1.10685e+06 1.10685e+06 1.10685e+06 1.10685e+06 1.10685e+06 1.10685e+06 1.10685e+06 1.10685e+06 1.10685e+06 1.10685e+06 1.10685e+06 1.10685e+06 1.10685e+06 1.10685e+06 1.10685e+06 1.10685e+06 1.10685e+06 1.10685e+06 1.10685e+06 1.10685e+06 1.10685e+06 1.10685e+06 1.10685e+06 1.10685e+06 1.10685e+06 1.10685e+06 1.10685e+06 1.10685e+06 1.10685e+06 1.10685e+06 1.10685e+06 1.10685e+06 1.10685e+06 1.10685e+06 1.10685e+06 1.10685e+06 1.10685e+06 1.10685e+06 1.10685e+06 1.10685e+06 1.10685e+06 1.10685e+06 1.10685e+06 1.10685e+06 1.10685e+06 1.10685e+06 1.10685e+06 1.10685e+06 1.10685e+06 1.10685e+06 1.10685e+06 1.10685e+06 1.10685e+06 1.10685e+06 1.10685e+06 1.10685e+06 1.10685e+06 1.10685e+06 1.10685e+06 1.10685e+06 1.10685e+06 1.10685e+06 1.10685e+06 1.10685e+06 1.10685e+06 1.10685e+06 1.10685e+06 1.10685e+06 1.10685e+06 1.10685e+06 1.10685e+06 1.10685e+06 1.10685e+06 1.10685e+06 1.10685e+06 1.10685e+06 1.10685e+06 1.10685e+06 1.10685e+06 1.10685e+06 1.10685e+06 1.10685e+06 1.10685e+06 1.10685e+06 1.10685e+06 1.10685e+06 1.10685e+06 1.10685e+06 1.10685e+06 1.10685e+06 1.10685e+06 1.10685e+06 1.10685e+06 1.10685e+06 1.10685e+06 1.10685e+06 1.10685e+06 1.10685e+06 1.10685e+06 1.10685e+06 1.10685e+06 1.10685e+06 1.10685e+06 1.10685e+06 1.10685e+06 1.10685e+06 1.10685e+06 1.10685e+06 1.10685e+06 1.10685e+06 1.10685e+06 1.10685e+06 1.10685e+06 1.10685e+06 1.10685e+06 1.10685e+06 1.10685e+06 1.10685e+06 1.10685e+06 1.10685e+06 1.10685e+06 1.10685e+06 1.10685e+06 1.10685e+06 1.10685e+06 1.10685e+06 1.10685e+06 1.10685e+06 1.10685e+06 1.10685e+06 1.10685e+06 1.10685e+06 1.10685e+06 1.10685e+06 1.10685e+06 1.10685e+06 1.10685e+06 1.10685e+06 1.10685e+06 1.10685e+06 1.10685e+06 1.10685e+06 1.10685e+06 1.10685e+06 1.10685e+06 1.10685e+06 1.10685e+06 1.10685e+06 1.10685e+06 1.10685e+06 1.10685e+06 1.10685e+06 1.10685e+06
1.10685e+06 1.10685e+06 1.10685e+06 1.10685e+06 1.10685e+06 1.10685e+06 1.10685e+06 1.10685e+06 1.10685e+06 1.10685e+06 1.10685e+06 1.10685e+06 1.10685e+06 1.10685e+06 1.10685e+06 1.10685e+06 1.10685e+06 1.10685e+06 1.10685e+06 1.10685e+06 1.10685e+06 1.10685e+06 1.10685e+06 1.10685e+06 1.10685e+06 1.10685e+06 1.10685e+06 1.10685e+06 1.10685e+06 1.10685e+06 1.10685e+06 1.10685e+06 1.10685e+06 1.10685e+06 1.10685e+06 1.10685e+06 1.10685e+06 1.10685e+06 1.10685e+06 1.10685e+06 1.10685e+06 1.10685e+06 1.10685e+06 1.10685e+06 1.10685e+06 1.10685e+06 1.10685e+06 1.10685e+06 1.10685e+06 1.10685e+06 1.10685e+06 1.10685e+06 1.10685e+06 1.10685e+06 1.10685e+06 1.10685e+06 1.10685e+06 1.10685e+06 1.10685e+06 1.10685e+06 1.10685e+06 1.10685e+06 1.10685e+06 1.10685e+06 1.10685e+06 1.10685e+06 1.10685e+06 1.10685e+06 1.10685e+06 1.10685e+06 1.10685e+06 1.10685e+06 1.10685e+06 1.10685e+06 1.10685e+06 1.10685e+06 1.10685e+06 1.10685e+06 1.10685e+06 1.10685e+06 1.10685e+06 1.10685e+06 1.10685e+06 1.10685e+06 1.10685e+06 1.10685e+06 1.10685e+06 1.10685e+06 1.10685e+06 1.10685e+06 1.10685e+06 1.10685e+06 1.10685e+06 1.10685e+06 1.10685e+06 1.10685e+06 1.10685e+06 1.10685e+06 1.10685e+06 1.10685e+06 1.10685e+06 1.10685e+06 1.10685e+06 1.10685e+06 1.10685e+06 1.10685e+06 1.10685e+06 1.10685e+06 1.10685e+06 1.10685e+06 1.10685e+06 1.10685e+06 1.10685e+06 1.10685e+06 1.10685e+06 1.10685e+06 1.10685e+06 1.10685e+06 1.10685e+06 1.10685e+06 1.10685e+06 1.10685e+06 1.10685e+06 1.10685e+06 1.10685e+06 1.10685e+06 1.10685e+06 1.10685e+06 1.10685e+06 1.10685e+06 1.10685e+06 1.10685e+06 1.10685e+06 1.10685e+06 1.10685e+06 1.10685e+06 1.10685e+06 1.10685e+06 1.10685e+06 1.10685e+06 1.10685e+06 1.10685e+06 1.10685e+06 1.10685e+06 1.10685e+06 1.10685e+06 1.10685e+06 1.10685e+06 1.10685e+06 1.10685e+06 1.10685e+06 1.10685e+06 1.10685e+06 1.10685e+06 1.10685e+06 1.10685e+06 1.10685e+06 1.10685e+06 1.10685e+06 1.10685e+06 1.10685e+06 1.10685e+06 1.10685e+06 1.10685e+06 1.10685e+06 1.10685e+06 1.10685e+06 1.10685e+06 1.10685e+06 1.10685e+06 1.10685e+06 1.10685e+06 1.10685e+06 1.10685e+06 1.10685e+06 1.10685e+06 1.10685e+06 1.10685e+06 1.10685e+06 1.10685e+06 1.10685e+06 1.10685e+06 1.10685e+06 1.10685e+06 1.10685e+06 1.10685e+06 1.10685e+06 1.10685e+06 1.10685e+06 1.10685e+06 1.10685e+06 1.10685e+06 1.10685e+06 1.10685e+06 1.10685e+06 1.10685e+06 1.10685e+06 1.10685e+06 1.10685e+06 1.10685e+06 1.10685e+06 1.10685e+06 1.10685e+06 1.10685e+06 1.10685e+06 1.10685e+06 1.10685e+06 1.10685e+06 1.10685e+06 1.10685e+06 1.10685e+06 1.10685e+06 1.10685e+06 1.10685e+06 1.10685e+06 1.10685e+06 1.10685e+06 1.10685e+06 1.10685e+06 1.10685e+06 1.10685e+06 1.10685e+06 1.10685e+06 1.10685e+06 1.10685e+06 1.10685e+06 1.10685e+06 1.10685e+06 1.10685e+06 1.10685e+06 1.10685e+06 1.10685e+06 1.10685e+06 1.10685e+06 1.10685e+06 1.10685e+06 1.10685e+06 1.10685e+06 1.10685e+06 1.10685e+06 1.10685e+06 1.10685e+06 1.10685e+06 1.10685e+06 1.10685e+06 1.10685e+06 1.10685e+06 1.10685e+06 1.10685e+06 1.10685e+06 1.10685e+06 1.10685e+06 1.10685e+06 1.10685e+06 1.10685e+06 1.10685e+06 1.10685e+06 1.10685e+06 1.10685e+06 1.10685e+06 1.10685e+06 1.10685e+06 1.10685e+06 1.10685e+06 1.10685e+06 1.10685e+06 1.10685e+06 1.10685e+06 1.10685e+06 1.10685e+06 1.10685e+06 1.10685e+06 1.10685e+06 1.10685e+06 1.10685e+06 1.10685e+06 1.10685e+06 1.10685e+06 1.10685e+06 1.10685e+06 1.10685e+06 1.10685e+06 1.10685e+06 1.10685e+06 1.10685e+06 1.10685e+06 1.10685e+06 1.10685e+06 1.10685e+06 1.10685e+06 1.10685e+06 1.10685e+06 1.10685e+06 1.10685e+06 1.10685e+06 1.10685e+06 1.10685e+06 1.10685e+06 1.10685e+06 1.10685e+06 1.10685e+06 1.10685e+06 1.10685e+06 1.10685e+06 1.10685e+06 1.10685e+06 1.10685e+06 1.10685e+06 1.10685e+06 1.10685e+06 1.10685e+06 1.10685e+06 1.10685e+06 1.10685e+06 1.10685e+06 1.10685e+06 1.10685e+06 1.10685e+06 1.10685e+06 1.10685e+06 1.10685e+06 1.10685e+06 1.10685e+06 1.10685e+06 1.10685e+06 1.10685e+06 1.10685e+06 1.10685e+06 1.10685e+06 1.10685e+06 1.10685e+06 1.10685e+06 1.10685e+06 1.10685e+06 1.10685e+06 1.10685e+06 1.10685e+06 1.10685e+06 1.10685e+06 1.10685e+06 1.10685e+06 1.10685e+06 1.10685e+06 1.10685e+06 1.10685e+06 1.10685e+06 1.10685e+06 1.10685e+06 1.10685e+06 1.10685e+06 1.10685e+06 1.10685e+06 1.10685e+06 1.10685e+06 1.10685e+06 1.10685e+06 1.10685e+06 1.10685e+06 1.10685e+06 1.10685e+06 1.10685e+06 1.10685e+06 1.10685e+06 1.10685e+06 1.10685e+06 1.10685e+06 1.10685e+06 1.10685e+06 1.10685e+06 1.10685e+06 1.10685e+06 1.10685e+06 1.10685e+06 1.10685e+06 1.10685e+06 1.10685e+06 1.10685e+06 1.10685e+06 1.10685e+06 1.10685e+06 1.10685e+06 1.10685e+06 1.10685e+06 1.10685e+06 1.10685e+06 1.10685e+06 1.10685e+06 1.10685e+06 1.10685e+06 1.10685e+06 1.10685e+06 1.10685e+06 1.10685e+06 1.10685e+06 1.10685e+06 1.10685e+06 1.10685e+06 1.10685e+06 1.10685e+06 1.10685e+06 1.10685e+06 1.10685e+06 1.10685e+06 1.10685e+06 1.10685e+06 1.10685e+06 1.10685e+06 1.10685e+06 1.10685e+06 1.10685e+06 1.10685e+06 1.10685e+06 1.10685e+06 1.10685e+06 1.10685e+06 1.10685e+06 1.10685e+06 1.10685e+06 1.10685e+06 1.10685e+06 1.10685e+06 1.10685e+06 1.10685e+06 1.10685e+06 1.10685e+06 1.10685e+06 1.10685e+06 1.10685e+06 1.10685e+06 1.10685e+06 1.10685e+06 1.10685e+06 1.10685e+06 1.10685e+06 1.10685e+06 1.10685e+06 1.10685e+06 1.10685e+06 1.10685e+06 1.10685e+06 1.10685e+06 1.10685e+06 1.10685e+06 1.10685e+06 1.10685e+06 1.10685e+06 1.10685e+06 1.10685e+06 1.10685e+06 1.10685e+06 1.10685e+06 1.10685e+06 1.10685e+06 1.10685e+06 1.10685e+06 1.10685e+06 1.10685e+06 1.10685e+06 1.10685e+06 1.10685e+06 1.10685e+06 1.10685e+06 1.10685e+06 1.10685e+06 1.10685e+06 1.10685e+06 1.10685e+06 1.10685e+06 1.10685e+06 1.10685e+06 1.10685e+06 1.10685e+06 1.10685e+06 1.10685e+06 1.10685e+06 1.10685e+06 1.10685e+06 1.10685e+06 1.10685e+06 1.10685e+06 1.10685e+06 1.10685e+06 1.10685e+06 1.10685e+06 1.10685e+06 1.10685e+06 1.10685e+06 1.10685e+06 1.10685e+06 1.10685e+06 1.10685e+06 1.10685e+06 1.10685e+06 1.10685e+06 1.10685e+06 1.10685e+06 1.10685e+06 1.10685e+06 1.10685e+06 1.10685e+06 1.10685e+06 1.10685e+06 1.10685e+06 1.10685e+06 1.10685e+06 1.10685e+06 1.10685e+06 1.10685e+06 1.10685e+06 1.10685e+06 1.10685e+06 1.10685e+06 1.10685e+06 1.10685e+06 1.10685e+06 1.10685e+06 1.10685e+06 1.10685e+06 1.10685e+06 1.10685e+06 1.10685e+06 1.10685e+06 1.10685e+06 1.10685e+06 1.10685e+06 1.10685e+06 1.10685e+06 1.10685e+06 1.10685e+06 1.10685e+06 1.10685e+06 1.10685e+06 1.10685e+06 1.10685e+06 1.10685e+06 1.10685e+06 1.10685e+06 1.10685e+06 1.10685e+06 1.10685e+06 1.10685e+06 1.10685e+06 1.10685e+06 1.10685e+06 1.10685e+06 1.10685e+06 1.10685e+06 1.10685e+06 1.10685e+06 1.10685e+06 1.10685e+06 1.10685e+06 1.10685e+06 1.10685e+06 1.10685e+06 1.10685e+06 1.10685e+06 1.10685e+06 1.10685e+06 1.10685e+06 1.10685e+06 1.10685e+06 1.10685e+06 1.10685e+06 1.10685e+06 1.10685e+06 1.10685e+06 1.10685e+06 1.10685e+06 1.10685e+06 1.10685e+06 1.10685e+06 1.10685e+06 1.10685e+06 1.10685e+06 1.10685e+06 1.10685e+06 1.10685e+06 1.10685e+06 1.10685e+06 1.10685e+06 1.10685e+06 1.10685e+06 1.10685e+06 1.10685e+06 1.10685e+06 1.10685e+06 1.10685e+06 1.10685e+06 1.10685e+06 1.10685e+06 1.10685e+06 1.10685e+06 1.10685e+06 1.10685e+06 1.10685e+06 1.10685e+06 1.10685e+06 1.10685e+06 1.10685e+06 1.10685e+06 1.10685e+06 1.10685e+06 1.10685e+06 1.10685e+06 1.10685e+06 1.10685e+06 1.10685e+06 1.10685e+06 1.10685e+06 1.10685e+06 1.10685e+06 1.10685e+06 1.10685e+06 1.10685e+06 1.10685e+06 1.10685e+06 1.10685e+06 1.10685e+06 1.10685e+06 1.10685e+06 1.10685e+06 1.10685e+06 1.10685e+06 1.10685e+06 1.10685e+06 1.10685e+06 1.10685e+06 1.10685e+06 1.10685e+06 1.10685e+06 1.10685e+06 1.10685e+06 1.10685e+06 1.10685e+06 1.10685e+06 1.10685e+06 1.10685e+06 1.10685e+06 1.10685e+06 1.10685e+06 1.10685e+06 1.10685e+06 1.10685e+06 1.10685e+06 1.10685e+06 1.10685e+06 1.10685e+06 1.10685e+06 1.10685e+06 1.10685e+06 1.10685e+06 1.10685e+06 1.10685e+06 1.10685e+06 1.10685e+06 1.10685e+06 1.10685e+06 1.10685e+06 1.10685e+06 1.10685e+06 1.10685e+06 1.10685e+06 1.10685e+06 1.10685e+06 1.10685e+06 1.10685e+06 1.10685e+06 1.10685e+06 1.10685e+06 1.10685e+06 1.10685e+06 1.10685e+06 1.10685e+06 1.10685e+06 1.10685e+06 1.10685e+06 1.10685e+06 1.10685e+06 1.10685e+06 1.10685e+06 1.10685e+06 1.10685e+06 1.10685e+06 1.10685e+06 1.10685e+06 1.10685e+06 1.10685e+06 1.10685e+06 1.10685e+06 1.10685e+06 1.10685e+06 1.10685e+06 1.10685e+06 1.10685e+06 1.10685e+06 1.10685e+06 1.10685e+06 1.10685e+06 1.10685e+06 1.10685e+06 1.10685e+06 1.10685e+06 1.10685e+06 1.10685e+06 1.10685e+06 1.10685e+06 1.10685e+06 1.10685e+06 1.10685e+06 1.10685e+06 1.10685e+06 1.10685e+06 1.10685e+06 1.10685e+06 1.10685e+06 1.10685e+06 1.10685e+06 1.10685e+06 1.10685e+06 1.10685e+06 1.10685e+06 1.10685e+06 1.10685e+06 1.10685e+06 1.10685e+06 1.10685e+06 1.10685e+06 1.10685e+06 1.10685e+06 1.10685e+06 1.10685e+06 1.10685e+06 1.10685e+06 1.10685e+06 1.10685e+06 1.10685e+06 1.10685e+06 1.10685e+06 1.10685e+06 1.10685e+06 1.10685e+06 1.10685e+06 1.10685e+06 1.10685e+06 1.10685e+06 1.10685e+06 1.10685e+06 1.10685e+06 1.10685e+06 1.10685e+06 1.10685e+06 1.10685e+06 1.10685e+06 1.10685e+06 1.10685e+06 1.10685e+06 1.10685e+06 1.10685e+06 1.10685e+06 1.10685e+06 1.10685e+06 1.10685e+06 1.10685e+06 1.10685e+06 1.10685e+06 1.10685e+06 1.10685e+06 1.10685e+06 1.10685e+06 1.10685e+06 1.10685e+06 1.10685e+06 1.10685e+06 1.10685e+06 1.10685e+06 1.10685e+06 1.10685e+06 1.10685e+06 1.10685e+06 1.10685e+06 1.10685e+06 1.10685e+06 1.10685e+06 1.10685e+06 1.10685e+06 1.10685e+06 1.10685e+06 1.10685e+06 1.10685e+06 1.10685e+06 1.10685e+06 1.10685e+06 1.10685e+06 1.10685e+06 1.10685e+06 1.10685e+06 1.10685e+06 1.10685e+06 1.10685e+06 1.10685e+06 1.10685e+06 1.10685e+06 1.10685e+06 1.10685e+06 1.10685e+06 1.10685e+06 1.10685e+06 1.10685e+06 1.10685e+06 1.10685e+06 1.10685e+06 1.10685e+06 1.10685e+06 1.10685e+06 1.10685e+06 1.10685e+06 1.10685e+06 1.10685e+06 1.10685e+06 1.10685e+06 1.10685e+06 1.10685e+06 1.10685e+06 1.10685e+06 1.10685e+06 1.10685e+06 1.10685e+06 1.10685e+06 1.10685e+06 1.10685e+06 1.10685e+06 1.10685e+06 1.10685e+06 1.10685e+06 1.10685e+06 1.10685e+06 1.10685e+06 1.10685e+06 1.10685e+06 1.10685e+06 1.10685e+06 1.10685e+06 1.10685e+06 1.10685e+06 1.10685e+06 1.10685e+06 1.10685e+06 1.10685e+06 1.10685e+06 1.10685e+06 1.10685e+06 1.10685e+06 1.10685e+06 1.10685e+06 1.10685e+06 1.10685e+06 1.10685e+06 1.10685e+06 1.10685e+06 1.10685e+06 1.10685e+06 1.10685e+06 1.10685e+06 1.10685e+06 1.10685e+06 1.10685e+06 1.10685e+06 1.10685e+06 1.10685e+06 1.10685e+06 1.10685e+06 1.10685e+06 1.10685e+06 1.10685e+06 1.10685e+06 1.10685e+06 1.10685e+06 1.10685e+06 1.10685e+06 1.10685e+06 1.10685e+06 1.10685e+06 1.10685e+06 1.10685e+06 1.10685e+06 1.10685e+06 1.10685e+06 1.10685e+06 1.10685e+06 1.10685e+06 1.10685e+06 1.10685e+06 1.10685e+06 1.10685e+06 1.10685e+06 1.10685e+06 1.10685e+06 1.10685e+06 1.10685e+06 1.10685e+06 1.10685e+06 1.10685e+06 1.10685e+06 1.10685e+06 1.10685e+06 1.10685e+06 1.10685e+06 1.10685e+06 1.10685e+06 1.10685e+06 1.10685e+06 1.10685e+06 1.10685e+06 1.10685e+06 1.10685e+06 1.10685e+06 1.10685e+06 1.10685e+06 1.10685e+06 1.10685e+06 1.10685e+06 1.10685e+06 1.10685e+06 1.10685e+06 1.10685e+06 1.10685e+06 1.10685e+06 1.10685e+06 1.10685e+06 1.10685e+06 1.10685e+06 1.10685e+06 1.10685e+06 1.10685e+06 1.10685e+06 1.10685e+06 1.10685e+06 1.10685e+06 1.10685e+06 1.10685e+06 1.10685e+06 1.10685e+06 1.10685e+06 1.10685e+06 1.10685e+06 1.10685e+06 1.10685e+06 1.10685e+06 1.10685e+06 1.10685e+06 1.10685e+06 1.10685e+06 1.10685e+06 1.10685e+06 1.10685e+06 1.10685e+06 1.10685e+06 1.10685e+06 1.10685e+06 1.10685e+06 1.10685e+06 1.10685e+06 1.10685e+06 1.10685e+06 1.10685e+06 1.10685e+06 1.10685e+06 1.10685e+06 1.10685e+06 1.10685e+06 1.10685e+06 1.10685e+06 1.10685e+06 1.10685e+06 1.10685e+06 1.10685e+06 1.10685e+06 1.10685e+06 1.10685e+06 1.10685e+06 1.10685e+06 1.10685e+06 1.10685e+06 1.10685e+06 1.10685e+06 1.10685e+06 1.10685e+06 1.10685e+06 1.10685e+06 1.10685e+06 1.10685e+06 1.10685e+06 1.10685e+06 1.10685e+06 1.10685e+06 1.10685e+06 1.10685e+06 1.10685e+06 1.10685e+06 1.10685e+06 1.10685e+06 1.10685e+06 1.10685e+06 1.10685e+06 1.10685e+06 1.10685e+06 1.10685e+06 1.10685e+06 1.10685e+06 1.10685e+06 1.10685e+06 1.10685e+06 1.10685e+06 1.10685e+06 1.10685e+06 1.10685e+06 1.10685e+06 1.10685e+06 1.10685e+06 1.10685e+06 1.10685e+06 1.10685e+06 1.10685e+06 1.10685e+06 1.10685e+06 1.10685e+06 1.10685e+06 1.10685e+06 1.10685e+06 1.10685e+06 1.10685e+06 1.10685e+06 1.10685e+06 1.10685e+06 1.10685e+06 1.10685e+06 1.10685e+06 1.10685e+06 1.10685e+06 1.10685e+06 1.10685e+06 1.10685e+06 1.10685e+06 1.10685e+06 1.10685e+06 1.10685e+06 1.10685e+06 1.10685e+06 1.10685e+06 1.10685e+06 1.10685e+06 1.10685e+06 1.10685e+06 1.10685e+06 1.10685e+06 1.10685e+06 1.10685e+06 1.10685e+06 1.10685e+06 1.10685e+06 1.10685e+06 1.10685e+06 1.10685e+06 1.10685e+06 1.10685e+06 1.10685e+06 1.10685e+06 1.10685e+06 1.10685e+06 1.10685e+06 1.10685e+06 1.10685e+06 1.10685e+06 1.10685e+06 1.10685e+06 1.10685e+06 1.10685e+06 1.10685e+06 1.10685e+06 1.10685e+06 1.10685e+06 1.10685e+06 1.10685e+06 1.10685e+06 1.10685e+06 1.10685e+06 1.10685e+06 1.10685e+06 1.10685e+06 1.10685e+06 1.10685e+06 1.10685e+06 1.10685e+06 1.10685e+06 1.10685e+06 1.10685e+06 1.10685e+06 1.10685e+06 1.10685e+06 1.10685e+06 1.10685e+06 1.10685e+06 1.10685e+06 1.10685e+06 1.10685e+06 1.10685e+06 1.10685e+06 1.10685e+06 1.10685e+06 1.10685e+06 1.10685e+06 1.10685e+06 1.10685e+06 1.10685e+06 1.10685e+06 1.10685e+06 1.10685e+06 1.10685e+06 1.10685e+06 1.10685e+06 1.10685e+06 1.10685e+06 1.10685e+06 1.10685e+06 1.10685e+06 1.10685e+06 1.10685e+06 1.10685e+06 1.10685e+06 1.10685e+06 1.10685e+06 1.10685e+06 1.10685e+06 1.10685e+06 1.10685e+06 1.10685e+06 1.10685e+06 1.10685e+06 1.10685e+06 1.10685e+06 1.10685e+06 1.10685e+06 1.10685e+06 1.10685e+06 1.10685e+06 1.10685e+06 1.10685e+06 1.10685e+06 1.10685e+06 1.10685e+06 1.10685e+06 1.10685e+06 1.10685e+06 1.10685e+06 1.10685e+06 1.10685e+06 1.10685e+06 1.10685e+06 1.10685e+06 1.10685e+06 1.10685e+06 1.10685e+06 1.10685e+06 1.10685e+06 1.10685e+06 1.10685e+06 1.10685e+06 1.10685e+06 1.10685e+06 1.10685e+06 1.10685e+06 1.10685e+06 1.10685e+06 1.10685e+06 1.10685e+06 1.10685e+06 1.10685e+06 1.10685e+06 1.10685e+06 1.10685e+06 1.10685e+06 1.10685e+06 1.10685e+06 1.10685e+06 1.10685e+06 1.10685e+06 1.10685e+06 1.10685e+06 1.10685e+06 1.10685e+06 1.10685e+06 1.10685e+06 1.10685e+06 1.10685e+06 1.10685e+06 1.10685e+06 1.10685e+06 1.10685e+06 1.10685e+06 1.10685e+06 1.10685e+06 1.10685e+06 1.10685e+06 1.10685e+06 1.10685e+06 1.10685e+06 1.10685e+06 1.10685e+06 1.10685e+06 1.10685e+06 1.10685e+06 1.10685e+06 1.10685e+06 1.10685e+06 1.10685e+06 1.10685e+06 1.10685e+06 1.10685e+06 1.10685e+06 1.10685e+06 1.10685e+06 1.10685e+06 1.10685e+06 1.10685e+06 1.10685e+06 1.10685e+06 1.10685e+06 1.10685e+06 1.10685e+06 1.10685e+06 1.10685e+06 1.10685e+06 1.10685e+06 1.10685e+06 1.10685e+06 1.10685e+06 1.10685e+06 1.10685e+06 1.10685e+06 1.10685e+06 1.10685e+06 1.10685e+06 1.10685e+06 1.10685e+06 1.10685e+06 1.10685e+06 1.10685e+06 1.10685e+06 1.10685e+06 1.10685e+06 1.10685e+06 1.10685e+06 1.10685e+06 1.10685e+06 1.10685e+06 1.10685e+06 1.10685e+06 1.10685e+06 1.10685e+06 1.10685e+06 1.10685e+06 1.10685e+06 1.10685e+06 1.10685e+06 1.10685e+06 1.10685e+06 1.10685e+06 1.10685e+06 1.10685e+06 1.10685e+06 1.10685e+06 1.10685e+06 1.10685e+06 1.10685e+06 1.10685e+06 1.10685e+06 1.10685e+06 1.10685e+06 1.10685e+06 1.10685e+06 1.10685e+06 1.10685e+06 1.10685e+06 1.10685e+06 1.10685e+06 1.10685e+06 1.10685e+06 1.10685e+06 1.10685e+06 1.10685e+06 1.10685e+06 1.10685e+06 1.10685e+06 1.10685e+06 1.10685e+06 1.10685e+06 1.10685e+06 1.10685e+06 1.10685e+06 1.10685e+06 1.10685e+06 1.10685e+06 1.10685e+06 1.10685e+06 1.10685e+06 1.10685e+06 1.10685e+06 1.10685e+06 1.10685e+06 1.10685e+06 1.10685e+06 1.10685e+06 1.10685e+06 1.10685e+06 1.10685e+06 1.10685e+06 1.10685e+06 1.10685e+06 1.10685e+06 1.1