# vtk DataFile Version 2.0
sampleSurface
ASCII
DATASET POLYDATA
POINTS 29975 float
-1.9 1.23597e-23 -2 -2 7.70685e-24 -2 -2 8.56447e-18 -1.90008 -1.90002 -2.06795e-25
-1.90008 -1.8 2.64257e-23 -2 -1.80002 -2.06795e-25 -1.90008 -1.7 5.8376e-23 -2
-1.70002 0 -1.90008 -1.6 1.25553e-22 -2 -1.60003 0 -1.90009 -1.5
2.59613e-22 -2 -1.50003 0 -1.90009 -1.4 5.1359e-22 -2 -1.40003 0
-1.90009 -1.3 9.68249e-22 -2 -1.30003 -4.1359e-25 -1.90009 -1.2 1.7325e-21 -2
-1.20003 0 -1.90009 -1.1 2.92959e-21 -2 -1.10003 0 -1.90009 -1
4.66074e-21 -2 -1.00003 0 -1.90009 -0.9 6.94544e-21 -2 -0.900028 0
-1.90009 -0.8 9.6544e-21 -2 -0.800028 4.1359e-25 -1.9001 -0.7 1.24691e-20 -2
-0.700023 0 -1.9001 -0.6 1.49031e-20 -2 -0.600006 0 -1.9001 -0.5
1.63724e-20 -2 -0.500001 0 -1.9001 -0.4 1.63776e-20 -2 -0.4 0
-1.9001 -0.3 1.4601e-20 -2 -0.3 0 -1.9001 -0.2 1.10266e-20 -2
-0.2 0 -1.9001 -0.1 6.00259e-21 -2 -0.1 1.65436e-24 -1.9001 -2.01598e-21
0 -2 -2.04443e-21 0 -2 -0.0118749 2.06795e-25 -1.9001 0.00389139 -2.35099e-38
-2 1.42248e-10 0 -1.9001 0.1 0 -2 0.1 1.65436e-24 -1.9001
0.2 0 -2 0.2 0 -1.9001 0.3 -1.50463e-36 -2 0.3
0 -1.9001 0.4 0 -2 0.4 0 -1.9001 0.5 0
-2 0.500001 0 -1.9001 0.6 0 -2 0.600004 0 -1.9001
0.7 0 -2 0.700005 0 -1.9001 0.8 0 -2 0.800005
-1.65436e-24 -1.9001 0.9 0 -2 0.900005 0 -1.9001 1 0
-2 1.00001 0 -1.9001 1.1 0 -2 1.10001 0 -1.9001
1.2 0 -2 1.20001 -8.27181e-25 -1.90009 1.3 0 -2 1.30001
0 -1.90009 1.4 0 -2 1.40002 0 -1.90009 1.5 0
-2 1.50002 0 -1.90009 1.6 0 -2 1.60003 0 -1.90008
1.7 0 -2 1.70004 0 -1.90008 1.80004 0 -2 1.80006
-8.27181e-25 -1.9001 1.90009 0 -2 1.9001 0 -1.90015 2.00012 -1.65436e-24
-2 2.00013 1.65436e-24 -1.90019 2.10015 1.65436e-24 -2 2.10016 1.65436e-24 -1.90024
2.20018 -1.65436e-24 -2 2.20019 0 -1.90028 2.30021 3.30872e-24 -2 2.30022
3.30872e-24 -1.90031 2.40023 -3.30872e-24 -2 2.40024 0 -1.90035 2.50025 0
-2 2.50026 0 -1.90037 2.60027 3.30872e-24 -2 2.60027 -3.30872e-24 -1.9004
2.70028 -3.30872e-24 -2 2.70029 -3.30872e-24 -1.90042 2.8003 0 -2 2.80031
3.30872e-24 -1.90044 2.90031 0 -2 2.90032 -3.30872e-24 -1.90046 3.00032 3.30872e-24
-2 3.00033 0 -1.90048 3.10034 3.30872e-24 -2 3.10034 3.30872e-24 -1.9005
3.20035 0 -2 3.20035 0 -1.90051 3.30036 0 -2 3.30036
0 -1.90052 3.40036 3.30872e-24 -2 3.40037 0 -1.90054 3.50037 0
-2 3.50038 4.23516e-22 -1.90054 3.60038 0 -2 3.60039 0 -1.90055
3.70039 0 -2 3.70041 8.47033e-22 -1.90055 3.8004 0 -2 3.80048
3.38813e-21 -1.90051 3.9004 -4.23516e-22 -2 3.90049 -6.77626e-21 -1.90048 4.0004 0
-2 4.00051 0 -1.90041 4.10043 -3.38813e-21 -2 4.10058 0 -1.90022
4.20043 -6.77626e-21 -2 4.20058 1.35525e-20 -1.90011 4.30041 6.77626e-21 -2 4.30055
-1.35525e-20 -1.90008 4.40039 6.77626e-21 -2 4.40052 0 -1.90007 4.50041 6.77626e-21
-2 4.50049 0 -1.90006 4.60045 0 -2 4.60046 0 -1.9
4.70042 -1.35525e-20 -2 4.70043 1.35525e-20 -1.89999 4.80039 0 -2 4.80039
1.35525e-20 -1.89999 4.90036 0 -2 4.90036 0 -1.89999 5.00033 -1.35525e-20
-2 5.00033 -1.35525e-20 -1.89999 5.10029 0 -2 5.1003 0 -1.89999
5.20026 6.77626e-21 -2 5.20026 0 -1.89999 5.30023 6.77626e-21 -2 5.30023
0 -1.89999 5.4002 0 -2 5.4002 0 -1.89999 5.50016 0
-2 5.50017 -6.77626e-21 -1.89999 5.60013 0 -2 5.60013 6.77626e-21 -1.9
5.7001 0 -2 5.7001 3.38813e-21 -1.9 5.80007 0 -2 5.80007
0 -1.9 5.90003 -8.47033e-22 -2 5.90003 0 -1.9 6 -0
-1.9 6 0 -2 -2 4.16864e-18 -1.80015 -1.90005 -4.1359e-25 -1.80016
-1.80005 0 -1.80016 -1.70005 -4.1359e-25 -1.80017 -1.60005 8.27181e-25 -1.80017 -1.50005
-4.1359e-25 -1.80017 -1.40005 8.27181e-25 -1.80018 -1.30005 0 -1.80018 -1.20005 -8.27181e-25
-1.80018 -1.10006 -8.27181e-25 -1.80019 -1.00006 0 -1.80019 -0.900056 0 -1.80019
-0.800055 8.27181e-25 -1.80019 -0.700046 0 -1.80019 -0.600011 3.30872e-24 -1.8002 -0.500001
3.30872e-24 -1.8002 -0.4 0 -1.8002 -0.3 0 -1.8002 -0.2 0
-1.8002 -0.1 0 -1.8002 -0.0119173 0 -1.8002 2.86845e-10 0 -1.8002
0.1 -3.30872e-24 -1.8002 0.2 0 -1.8002 0.3 3.30872e-24 -1.8002 0.4
3.30872e-24 -1.8002 0.500002 -3.30872e-24 -1.8002 0.600008 0 -1.8002 0.70001 0
-1.8002 0.80001 -3.30872e-24 -1.8002 0.90001 0 -1.8002 1.00001 0 -1.80019
1.10001 -1.65436e-24 -1.80019 1.20003 0 -1.80019 1.30003 8.27181e-25 -1.80018 1.40003
-8.27181e-25 -1.80018 1.50004 0 -1.80017 1.60008 -8.27181e-25 -1.80016 1.70009 -8.27181e-25
-1.80014 1.80011 0 -1.80015 1.90013 0 -1.80019 2.00015 1.65436e-24 -1.80022
2.10018 -3.30872e-24 -1.80026 2.2002 0 -1.8003 2.30023 0 -1.80033 2.40025
0 -1.80036 2.50027 -3.30872e-24 -1.80039 2.60028 0 -1.80041 2.7003 -3.30872e-24
-1.80044 2.80031 -3.30872e-24 -1.80046 2.90033 0 -1.80047 3.00034 -1.32349e-23 -1.80049
3.10035 0 -1.80051 3.20036 0 -1.80051 3.30038 0 -1.80053 3.4004
8.47033e-22 -1.80053 3.50046 -3.38813e-21 -1.80049 3.60049 0 -1.80048 3.70055 -6.77626e-21
-1.80043 3.80067 0 -1.80019 3.90068 0 -1.80011 4.00065 0 -1.80008
4.10062 0 -1.80002 4.20059 0 -1.79999 4.30056 -1.35525e-20 -1.79999 4.40053
0 -1.79999 4.50049 1.35525e-20 -1.79999 4.60046 -1.35525e-20 -1.79998 4.70043 0
-1.79998 4.8004 -1.35525e-20 -1.79999 4.90036 0 -1.79999 5.00033 0 -1.79999
5.1003 0 -1.79999 5.20027 6.77626e-21 -1.79999 5.30023 0 -1.79999 5.4002
-6.77626e-21 -1.79999 5.50017 0 -1.79999 5.60013 -3.38813e-21 -1.8 5.7001 0
-1.8 5.80007 -1.69407e-21 -1.8 5.90003 8.47033e-22 -1.8 6 -0 -1.8
-2 -1.05256e-18 -1.70023 -1.90007 0 -1.70024 -1.80007 0 -1.70024 -1.70007
0 -1.70025 -1.60008 -8.27181e-25 -1.70025 -1.50008 8.27181e-25 -1.70026 -1.40008 0
-1.70026 -1.30008 -8.27181e-25 -1.70027 -1.20008 8.27181e-25 -1.70027 -1.10008 0 -1.70028
-1.00008 -8.27181e-25 -1.70028 -0.900084 0 -1.70028 -0.800083 0 -1.70029 -0.700069
0 -1.70029 -0.600017 0 -1.7003 -0.500002 6.61744e-24 -1.7003 -0.4 0
-1.7003 -0.3 0 -1.7003 -0.2 -6.61744e-24 -1.7003 -0.1 -3.30872e-24 -1.7003
-0.0119194 0 -1.7003 4.30425e-10 0 -1.7003 0.1 0 -1.7003 0.2
0 -1.7003 0.3 6.61744e-24 -1.7003 0.4 6.61744e-24 -1.7003 0.500003 0
-1.7003 0.600013 3.30872e-24 -1.7003 0.700015 3.30872e-24 -1.7003 0.800016 0 -1.7003
0.900015 0 -1.70029 1.00002 3.30872e-24 -1.70029 1.10003 -3.30872e-24 -1.70029 1.20004
0 -1.70028 1.30005 0 -1.70027 1.40005 0 -1.70027 1.50008 0
-1.70025 1.60013 1.65436e-24 -1.70023 1.70014 0 -1.70021 1.80015 1.65436e-24 -1.70022
1.90016 0 -1.70024 2.00018 0 -1.70026 2.1002 0 -1.7003 2.20022
3.30872e-24 -1.70033 2.30024 -3.30872e-24 -1.70036 2.40026 0 -1.70038 2.50028 0
-1.70041 2.6003 0 -1.70043 2.70031 0 -1.70045 2.80032 1.32349e-23 -1.70047
2.90034 5.29396e-23 -1.70049 3.00035 4.23516e-22 -1.7005 3.10038 0 -1.7005 3.20044
-3.38813e-21 -1.70047 3.30047 0 -1.70046 3.40053 1.35525e-20 -1.70041 3.50065 1.35525e-20
-1.70019 3.60068 0 -1.70011 3.70069 0 -1.70008 3.8007 0 -1.70001
3.90069 0 -1.69999 4.00066 0 -1.69999 4.10062 0 -1.69998 4.20059
0 -1.69998 4.30056 0 -1.69998 4.40053 0 -1.69998 4.5005 1.35525e-20
-1.69998 4.60046 0 -1.69998 4.70043 0 -1.69998 4.8004 0 -1.69999
4.90037 0 -1.69999 5.00033 1.35525e-20 -1.69999 5.1003 0 -1.69999 5.20027
0 -1.69999 5.30023 -6.77626e-21 -1.69999 5.4002 0 -1.69999 5.50017 0
-1.69999 5.60013 0 -1.7 5.7001 3.38813e-21 -1.7 5.80007 0 -1.7
5.90003 0 -1.7 6 -0 -1.7 -2 1.18217e-17 -1.6003 -1.90009
8.27181e-25 -1.60031 -1.80009 0 -1.60032 -1.7001 0 -1.60033 -1.6001 0
-1.60034 -1.5001 -8.27181e-25 -1.60034 -1.4001 0 -1.60035 -1.30011 0 -1.60036
-1.20011 0 -1.60036 -1.10011 1.65436e-24 -1.60037 -1.00011 1.65436e-24 -1.60037 -0.900112
0 -1.60038 -0.800111 1.65436e-24 -1.60038 -0.700092 0 -1.60039 -0.600022 0
-1.6004 -0.500002 0 -1.6004 -0.4 0 -1.6004 -0.3 0 -1.6004
-0.2 -6.61744e-24 -1.6004 -0.1 0 -1.6004 -0.0119194 0 -1.6004 6
0 -1.6 6 0 -1.6 6 0 -1.68973 5.73901e-10 0
-1.6004 0.1 0 -1.6004 0.2 0 -1.6004 0.3 -6.61744e-24 -1.6004
0.4 -6.61744e-24 -1.6004 0.500004 0 -1.6004 0.600017 0 -1.6004 0.70002
0 -1.6004 0.800021 -6.61744e-24 -1.60039 0.900021 0 -1.60039 1.00003 -3.30872e-24
-1.60039 1.10005 3.30872e-24 -1.60038 1.20006 0 -1.60037 1.30007 0 -1.60036
1.40009 0 -1.60035 1.50016 -1.65436e-24 -1.60032 1.60019 -3.30872e-24 -1.60029 1.70019
0 -1.60028 1.80019 -3.30872e-24 -1.60028 1.9002 0 -1.60029 2.00021 -3.30872e-24
-1.60031 2.10023 0 -1.60034 2.20025 0 -1.60036 2.30026 0 -1.60039
2.40028 -3.30872e-24 -1.60041 2.5003 3.30872e-24 -1.60043 2.60031 0 -1.60045 2.70032
5.29396e-23 -1.60047 2.80034 0 -1.60048 2.90037 0 -1.60049 3.00044 -3.38813e-21
-1.60045 3.10051 0 -1.60039 3.20063 -1.35525e-20 -1.60018 3.30065 -1.35525e-20 -1.6001
3.40067 2.71051e-20 -1.60008 3.50068 0 -1.60001 3.60069 0 -1.59999 3.7007
0 -1.59998 3.80071 0 -1.59998 3.90069 0 -1.59997 4.00066 -2.71051e-20
-1.59998 4.10063 0 -1.59998 4.2006 0 -1.59998 4.30057 0 -1.59998
4.40053 0 -1.59998 4.5005 -2.71051e-20 -1.59998 4.60047 0 -1.59998 4.70043
0 -1.59998 4.8004 0 -1.59999 4.90037 1.35525e-20 -1.59999 5.00034 0
-1.59999 5.1003 0 -1.59999 5.20027 6.77626e-21 -1.59999 5.30024 0 -1.59999
5.4002 -6.77626e-21 -1.59999 5.50017 0 -1.59999 5.60014 3.38813e-21 -1.6 5.7001
3.38813e-21 -1.6 5.80007 0 -1.6 5.90003 0 -1.6 -2 1.01824e-18
-1.50036 -1.90012 -1.65436e-24 -1.50038 -1.80012 -1.65436e-24 -1.50039 -1.70012 -1.65436e-24 -1.50041
-1.60012 0 -1.50042 -1.50013 1.65436e-24 -1.50043 -1.40013 0 -1.50044 -1.30013
-1.65436e-24 -1.50045 -1.20013 -1.65436e-24 -1.50045 -1.10014 0 -1.50046 -1.00014 0
-1.50047 -0.90014 1.65436e-24 -1.50047 -0.800139 0 -1.50048 -0.700115 0 -1.50048
-0.600028 0 -1.5005 -0.500003 0 -1.5005 -0.4 -6.61744e-24 -1.5005 -0.3
6.61744e-24 -1.5005 -0.2 6.61744e-24 -1.5005 -0.1 6.61744e-24 -1.5005 -0.0119194 8.27181e-25
-1.5005 6 0 -1.5 6 -0 -1.5 7.17376e-10 0 -1.5005
0.1 0 -1.5005 0.2 6.61744e-24 -1.5005 0.3 0 -1.5005 0.4
0 -1.5005 0.500005 -6.61744e-24 -1.5005 0.600021 -6.61744e-24 -1.5005 0.700026 -6.61744e-24
-1.5005 0.800026 0 -1.50049 0.900029 0 -1.50049 1.00005 0 -1.50048
1.10007 0 -1.50047 1.20008 0 -1.50046 1.3001 -1.65436e-24 -1.50045 1.40014
1.65436e-24 -1.50043 1.50022 0 -1.50038 1.60024 3.30872e-24 -1.50036 1.70024 0
-1.50035 1.80024 0 -1.50035 1.90024 0 -1.50035 2.00025 0 -1.50036
2.10026 0 -1.50038 2.20027 3.30872e-24 -1.5004 2.30029 0 -1.50042 2.4003
0 -1.50044 2.50031 5.29396e-23 -1.50046 2.60033 0 -1.50047 2.70036 0
[...]
POINT_DATA 29975
FIELD attributes 1
p 1 29975 float
1.10692e+06 1.10692e+06 1.10692e+06 1.10692e+06 1.10692e+06 1.10692e+06 1.10692e+06 1.10692e+06 1.10692e+06 1.10692e+06 1.10693e+06
1.10692e+06 1.10693e+06 1.10692e+06 1.10693e+06 1.10692e+06 1.10692e+06 1.10692e+06 1.10692e+06 1.10692e+06 1.10692e+06
1.10692e+06 1.10692e+06 1.10692e+06 1.10692e+06 1.10692e+06 1.10691e+06 1.10691e+06 1.10691e+06 1.10691e+06 1.10691e+06
1.1069e+06 1.1069e+06 1.1069e+06 1.1069e+06 1.1069e+06 1.10689e+06 1.10689e+06 1.10689e+06 1.10689e+06 1.10688e+06
1.10688e+06 1.10688e+06 1.10688e+06 1.10688e+06 1.10687e+06 1.10687e+06 1.10687e+06 1.10687e+06 1.10686e+06 1.10686e+06
1.10686e+06 1.10686e+06 1.10685e+06 1.10686e+06 1.10685e+06 1.10685e+06 1.10685e+06 1.10685e+06 1.10684e+06 1.10685e+06
1.10684e+06 1.10684e+06 1.10684e+06 1.10684e+06 1.10684e+06 1.10684e+06 1.10684e+06 1.10684e+06 1.10684e+06 1.10684e+06
1.10684e+06 1.10684e+06 1.10684e+06 1.10684e+06 1.10684e+06 1.10684e+06 1.10684e+06 1.10684e+06 1.10684e+06 1.10684e+06
1.10684e+06 1.10684e+06 1.10684e+06 1.10684e+06 1.10684e+06 1.10684e+06 1.10684e+06 1.10684e+06 1.10685e+06 1.10685e+06
1.10685e+06 1.10685e+06 1.10685e+06 1.10685e+06 1.10685e+06 1.10685e+06 1.10685e+06 1.10685e+06 1.10685e+06 1.10685e+06
1.10685e+06 1.10685e+06 1.10685e+06 1.10685e+06 1.10685e+06 1.10685e+06 1.10685e+06 1.10685e+06 1.10685e+06 1.10685e+06
1.10685e+06 1.10685e+06 1.10685e+06 1.10685e+06 1.10685e+06 1.10685e+06 1.10685e+06 1.10685e+06 1.10685e+06 1.10685e+06
1.10685e+06 1.10685e+06 1.10685e+06 1.10685e+06 1.10685e+06 1.10685e+06 1.10685e+06 1.10685e+06 1.10685e+06 1.10685e+06
1.10685e+06 1.10685e+06 1.10685e+06 1.10685e+06 1.10685e+06 1.10685e+06 1.10685e+06 1.10685e+06 1.10685e+06 1.10685e+06
1.10685e+06 1.10685e+06 1.10685e+06 1.10685e+06 1.10685e+06 1.10685e+06 1.10685e+06 1.10685e+06 1.10685e+06 1.10685e+06
1.10685e+06 1.10685e+06 1.10685e+06 1.10685e+06 1.10685e+06 1.10685e+06 1.10685e+06 1.10685e+06 1.10685e+06 1.10685e+06
1.10685e+06 1.10685e+06 1.10685e+06 1.10685e+06 1.10692e+06 1.10692e+06 1.10692e+06 1.10692e+06 1.10692e+06 1.10692e+06
1.10692e+06 1.10692e+06 1.10692e+06 1.10692e+06 1.10692e+06 1.10692e+06 1.10691e+06 1.10691e+06 1.10691e+06 1.1069e+06
1.1069e+06 1.10689e+06 1.10689e+06 1.10688e+06 1.10688e+06 1.10688e+06 1.10687e+06 1.10687e+06 1.10687e+06 1.10686e+06
1.10686e+06 1.10685e+06 1.10685e+06 1.10685e+06 1.10685e+06 1.10684e+06 1.10684e+06 1.10684e+06 1.10684e+06 1.10684e+06
1.10684e+06 1.10684e+06 1.10684e+06 1.10684e+06 1.10684e+06 1.10684e+06 1.10684e+06 1.10685e+06 1.10685e+06 1.10685e+06
1.10685e+06 1.10685e+06 1.10685e+06 1.10685e+06 1.10685e+06 1.10685e+06 1.10685e+06 1.10685e+06 1.10685e+06 1.10685e+06
1.10685e+06 1.10685e+06 1.10685e+06 1.10685e+06 1.10685e+06 1.10685e+06 1.10685e+06 1.10685e+06 1.10685e+06 1.10685e+06
1.10685e+06 1.10685e+06 1.10685e+06 1.10685e+06 1.10685e+06 1.10685e+06 1.10685e+06 1.10685e+06 1.10685e+06 1.10685e+06
1.10685e+06 1.10685e+06 1.10685e+06 1.10685e+06 1.10685e+06 1.10685e+06 1.10692e+06 1.10692e+06 1.10692e+06 1.10692e+06
1.10692e+06 1.10692e+06 1.10692e+06 1.10692e+06 1.10692e+06 1.10692e+06 1.10692e+06 1.10691e+06 1.10691e+06 1.10691e+06
1.10691e+06 1.1069e+06 1.1069e+06 1.10689e+06 1.10689e+06 1.10688e+06 1.10688e+06 1.10688e+06 1.10688e+06 1.10687e+06
1.10687e+06 1.10686e+06 1.10686e+06 1.10685e+06 1.10685e+06 1.10685e+06 1.10685e+06 1.10685e+06 1.10684e+06 1.10684e+06
1.10684e+06 1.10684e+06 1.10684e+06 1.10684e+06 1.10684e+06 1.10684e+06 1.10684e+06 1.10684e+06 1.10684e+06 1.10685e+06
1.10685e+06 1.10685e+06 1.10685e+06 1.10685e+06 1.10685e+06 1.10685e+06 1.10685e+06 1.10685e+06 1.10685e+06 1.10685e+06
1.10685e+06 1.10685e+06 1.10685e+06 1.10685e+06 1.10685e+06 1.10685e+06 1.10685e+06 1.10685e+06 1.10685e+06 1.10685e+06
1.10685e+06 1.10685e+06 1.10685e+06 1.10685e+06 1.10685e+06 1.10685e+06 1.10685e+06 1.10685e+06 1.10685e+06 1.10685e+06
1.10685e+06 1.10685e+06 1.10685e+06 1.10685e+06 1.10685e+06 1.10685e+06 1.10685e+06 1.10685e+06 1.10692e+06 1.10692e+06
1.10692e+06 1.10692e+06 1.10692e+06 1.10692e+06 1.10692e+06 1.10692e+06 1.10692e+06 1.10692e+06 1.10692e+06 1.10691e+06
1.10691e+06 1.10691e+06 1.1069e+06 1.1069e+06 1.1069e+06 1.10689e+06 1.10689e+06 1.10688e+06 1.10688e+06 1.10685e+06
1.10685e+06 1.10685e+06 1.10688e+06 1.10688e+06 1.10687e+06 1.10687e+06 1.10686e+06 1.10686e+06 1.10686e+06 1.10685e+06
1.10685e+06 1.10685e+06 1.10685e+06 1.10684e+06 1.10684e+06 1.10684e+06 1.10684e+06 1.10684e+06 1.10684e+06 1.10684e+06
1.10684e+06 1.10684e+06 1.10684e+06 1.10685e+06 1.10685e+06 1.10685e+06 1.10685e+06 1.10685e+06 1.10685e+06 1.10685e+06
1.10685e+06 1.10685e+06 1.10685e+06 1.10685e+06 1.10685e+06 1.10685e+06 1.10685e+06 1.10685e+06 1.10685e+06 1.10685e+06
1.10685e+06 1.10685e+06 1.10685e+06 1.10685e+06 1.10685e+06 1.10685e+06 1.10685e+06 1.10685e+06 1.10685e+06 1.10685e+06
1.10685e+06 1.10685e+06 1.10685e+06 1.10685e+06 1.10685e+06 1.10685e+06 1.10685e+06 1.10685e+06 1.10685e+06 1.10685e+06
1.10685e+06 1.10685e+06 1.10692e+06 1.10692e+06 1.10692e+06 1.10692e+06 1.10692e+06 1.10692e+06 1.10692e+06 1.10692e+06
1.10692e+06 1.10692e+06 1.10692e+06 1.10691e+06 1.10691e+06 1.10691e+06 1.1069e+06 1.1069e+06 1.1069e+06 1.10689e+06
1.10689e+06 1.10688e+06 1.10688e+06 1.10685e+06 1.10685e+06 1.10688e+06 1.10687e+06 1.10687e+06 1.10687e+06 1.10686e+06
1.10686e+06 1.10686e+06 1.10685e+06 1.10685e+06 1.10685e+06 1.10685e+06 1.10685e+06 1.10684e+06 1.10684e+06 1.10684e+06
1.10684e+06 1.10684e+06 1.10684e+06 1.10684e+06 1.10684e+06 1.10685e+06 1.10685e+06 1.10685e+06 1.10685e+06 1.10685e+06
1.10685e+06 1.10685e+06 1.10685e+06 1.10685e+06 1.10685e+06 1.10685e+06 1.10685e+06 1.10685e+06 1.10685e+06 1.10685e+06
1.10685e+06 1.10685e+06 1.10685e+06 1.10685e+06 1.10685e+06 1.10685e+06 1.10685e+06 1.10685e+06 1.10685e+06 1.10685e+06
1.10685e+06 1.10685e+06 1.10685e+06 1.10685e+06 1.10685e+06 1.10685e+06 1.10685e+06 1.10685e+06 1.10685e+06 1.10685e+06
1.10685e+06 1.10685e+06 1.10685e+06 1.10685e+06 1.10685e+06 1.10692e+06 1.10692e+06 1.10692e+06 1.10692e+06 1.10692e+06
1.10692e+06 1.10692e+06 1.10692e+06 1.10692e+06 1.10692e+06 1.10692e+06 1.10691e+06 1.10691e+06 1.10691e+06 1.1069e+06
1.1069e+06 1.1069e+06 1.10689e+06 1.10689e+06 1.10688e+06 1.10688e+06 1.10685e+06 1.10685e+06 1.10688e+06 1.10687e+06
1.10687e+06 1.10687e+06 1.10686e+06 1.10686e+06 1.10686e+06 1.10685e+06 1.10685e+06 1.10685e+06 1.10685e+06 1.10684e+06
1.10684e+06 1.10684e+06 1.10684e+06 1.10684e+06 1.10684e+06 1.10684e+06 1.10684e+06 1.10685e+06 1.10685e+06 1.10685e+06
1.10685e+06 1.10685e+06 1.10685e+06 1.10685e+06 1.10685e+06 1.10685e+06 1.10685e+06 1.10685e+06 1.10685e+06 1.10685e+06
1.10685e+06 1.10685e+06 1.10685e+06 1.10685e+06 1.10685e+06 1.10685e+06 1.10685e+06 1.10685e+06 1.10685e+06 1.10685e+06
1.10685e+06 1.10685e+06 1.10685e+06 1.10685e+06 1.10685e+06 1.10685e+06 1.10685e+06 1.10685e+06 1.10685e+06 1.10685e+06
1.10685e+06 1.10685e+06 1.10685e+06 1.10685e+06 1.10685e+06 1.10685e+06 1.10685e+06 1.10685e+06 1.10692e+06 1.10692e+06
1.10692e+06 1.10692e+06 1.10692e+06 1.10692e+06 1.10692e+06 1.10692e+06 1.10692e+06 1.10692e+06 1.10692e+06 1.10692e+06
1.10691e+06 1.10691e+06 1.10691e+06 1.1069e+06 1.1069e+06 1.10689e+06 1.10689e+06 1.10688e+06 1.10688e+06 1.10685e+06
1.10685e+06 1.10688e+06 1.10687e+06 1.10687e+06 1.10687e+06 1.10686e+06 1.10686e+06 1.10685e+06 1.10685e+06 1.10685e+06
1.10685e+06 1.10685e+06 1.10684e+06 1.10684e+06 1.10684e+06 1.10684e+06 1.10684e+06 1.10684e+06 1.10684e+06 1.10684e+06
1.10685e+06 1.10685e+06 1.10685e+06 1.10685e+06 1.10685e+06 1.10685e+06 1.10685e+06 1.10685e+06 1.10685e+06 1.10685e+06
1.10685e+06 1.10685e+06 1.10685e+06 1.10685e+06 1.10685e+06 1.10685e+06 1.10685e+06 1.10685e+06 1.10685e+06 1.10685e+06
1.10685e+06 1.10685e+06 1.10685e+06 1.10685e+06 1.10685e+06 1.10685e+06 1.10685e+06 1.10685e+06 1.10685e+06 1.10685e+06
1.10685e+06 1.10685e+06 1.10685e+06 1.10685e+06 1.10685e+06 1.10685e+06 1.10685e+06 1.10685e+06 1.10685e+06 1.10685e+06
1.10685e+06 1.10693e+06 1.10693e+06 1.10693e+06 1.10693e+06 1.10692e+06 1.10692e+06 1.10692e+06 1.10692e+06 1.10692e+06
1.10692e+06 1.10692e+06 1.10692e+06 1.10691e+06 1.10691e+06 1.10691e+06 1.1069e+06 1.1069e+06 1.10689e+06 1.10689e+06
1.10688e+06 1.10688e+06 1.10685e+06 1.10685e+06 1.10688e+06 1.10687e+06 1.10687e+06 1.10686e+06 1.10686e+06 1.10686e+06
1.10685e+06 1.10685e+06 1.10685e+06 1.10684e+06 1.10684e+06 1.10684e+06 1.10684e+06 1.10684e+06 1.10684e+06 1.10684e+06
1.10684e+06 1.10684e+06 1.10685e+06 1.10685e+06 1.10685e+06 1.10685e+06 1.10685e+06 1.10685e+06 1.10685e+06 1.10685e+06
1.10685e+06 1.10685e+06 1.10685e+06 1.10685e+06 1.10685e+06 1.10685e+06 1.10685e+06 1.10685e+06 1.10685e+06 1.10685e+06
1.10685e+06 1.10685e+06 1.10685e+06 1.10685e+06 1.10685e+06 1.10685e+06 1.10685e+06 1.10685e+06 1.10685e+06 1.10685e+06
1.10685e+06 1.10685e+06 1.10685e+06 1.10685e+06 1.10685e+06 1.10685e+06 1.10685e+06 1.10685e+06 1.10685e+06 1.10685e+06
1.10685e+06 1.10685e+06 1.10685e+06 1.10685e+06 1.10693e+06 1.10693e+06 1.10693e+06 1.10693e+06 1.10693e+06 1.10693e+06
1.10693e+06 1.10693e+06 1.10693e+06 1.10693e+06 1.10692e+06 1.10692e+06 1.10692e+06 1.10692e+06 1.10691e+06 1.10691e+06
1.1069e+06 1.1069e+06 1.10689e+06 1.10689e+06 1.10688e+06 1.10688e+06 1.10685e+06 1.10685e+06 1.10693e+06 1.10693e+06
1.10688e+06 1.10687e+06 1.10687e+06 1.10686e+06 1.10686e+06 1.10685e+06 1.10685e+06 1.10685e+06 1.10684e+06 1.10684e+06
1.10684e+06 1.10684e+06 1.10684e+06 1.10684e+06 1.10684e+06 1.10684e+06 1.10684e+06 1.10684e+06 1.10685e+06 1.10685e+06
1.10685e+06 1.10685e+06 1.10685e+06 1.10685e+06 1.10685e+06 1.10685e+06 1.10685e+06 1.10685e+06 1.10685e+06 1.10685e+06
1.10685e+06 1.10685e+06 1.10685e+06 1.10685e+06 1.10685e+06 1.10685e+06 1.10685e+06 1.10685e+06 1.10685e+06 1.10685e+06
1.10685e+06 1.10685e+06 1.10685e+06 1.10685e+06 1.10685e+06 1.10685e+06 1.10685e+06 1.10685e+06 1.10685e+06 1.10685e+06
1.10685e+06 1.10685e+06 1.10685e+06 1.10685e+06 1.10685e+06 1.10685e+06 1.10685e+06 1.10685e+06 1.10685e+06 1.10685e+06
1.10693e+06 1.10693e+06 1.10693e+06 1.10693e+06 1.10693e+06 1.10693e+06 1.10693e+06 1.10693e+06 1.10693e+06 1.10693e+06
1.10692e+06 1.10692e+06 1.10692e+06 1.10691e+06 1.10691e+06 1.1069e+06 1.1069e+06 1.10689e+06 1.10688e+06 1.10688e+06
1.10685e+06 1.10685e+06 1.10693e+06 1.10693e+06 1.10693e+06 1.10693e+06 1.10688e+06 1.10687e+06 1.10687e+06 1.10686e+06
1.10686e+06 1.10685e+06 1.10685e+06 1.10684e+06 1.10684e+06 1.10684e+06 1.10684e+06 1.10684e+06 1.10684e+06 1.10684e+06
1.10684e+06 1.10684e+06 1.10684e+06 1.10684e+06 1.10685e+06 1.10685e+06 1.10685e+06 1.10685e+06 1.10685e+06 1.10685e+06
1.10685e+06 1.10685e+06 1.10685e+06 1.10685e+06 1.10685e+06 1.10685e+06 1.10685e+06 1.10685e+06 1.10685e+06 1.10685e+06
1.10685e+06 1.10685e+06 1.10685e+06 1.10685e+06 1.10685e+06 1.10685e+06 1.10685e+06 1.10685e+06 1.10685e+06 1.10685e+06
1.10685e+06 1.10685e+06 1.10685e+06 1.10685e+06 1.10685e+06 1.10685e+06 1.10685e+06 1.10685e+06 1.10685e+06 1.10685e+06
1.10685e+06 1.10685e+06 1.10685e+06 1.10685e+06 1.10685e+06 1.10685e+06 1.10693e+06 1.10693e+06 1.10693e+06 1.10693e+06
1.10693e+06 1.10693e+06 1.10693e+06 1.10693e+06 1.10693e+06 1.10693e+06 1.10692e+06 1.10692e+06 1.10691e+06 1.1069e+06
1.1069e+06 1.10689e+06 1.10688e+06 1.10688e+06 1.10685e+06 1.10685e+06 1.10694e+06 1.10694e+06 1.10693e+06 1.10693e+06
1.10693e+06 1.10688e+06 1.10687e+06 1.10687e+06 1.10686e+06 1.10685e+06 1.10685e+06 1.10684e+06 1.10684e+06 1.10683e+06
1.10683e+06 1.10683e+06 1.10683e+06 1.10684e+06 1.10684e+06 1.10684e+06 1.10684e+06 1.10684e+06 1.10684e+06 1.10685e+06
1.10685e+06 1.10685e+06 1.10685e+06 1.10685e+06 1.10685e+06 1.10685e+06 1.10685e+06 1.10685e+06 1.10685e+06 1.10685e+06
1.10685e+06 1.10685e+06 1.10685e+06 1.10685e+06 1.10685e+06 1.10685e+06 1.10685e+06 1.10685e+06 1.10685e+06 1.10685e+06
1.10685e+06 1.10685e+06 1.10685e+06 1.10685e+06 1.10685e+06 1.10685e+06 1.10685e+06 1.10685e+06 1.10685e+06 1.10685e+06
1.10685e+06 1.10685e+06 1.10685e+06 1.10685e+06 1.10685e+06 1.10685e+06 1.10685e+06 1.10685e+06 1.10685e+06 1.10685e+06
1.10685e+06 1.10694e+06 1.10694e+06 1.10694e+06 1.10694e+06 1.10694e+06 1.10693e+06 1.10694e+06 1.10694e+06 1.10693e+06
1.10694e+06 1.10694e+06 1.10694e+06 1.10694e+06 1.10694e+06 1.10694e+06 1.10693e+06 1.10693e+06 1.10692e+06 1.10691e+06
1.10691e+06 1.1069e+06 1.10689e+06 1.10688e+06 1.10688e+06 1.10685e+06 1.10685e+06 1.10694e+06 1.10694e+06 1.10694e+06
1.10694e+06 1.10694e+06 1.10688e+06 1.10687e+06 1.10686e+06 1.10686e+06 1.10685e+06 1.10684e+06 1.10683e+06 1.10683e+06
1.10683e+06 1.10682e+06 1.10682e+06 1.10683e+06 1.10683e+06 1.10683e+06 1.10684e+06 1.10684e+06 1.10684e+06 1.10684e+06
1.10685e+06 1.10685e+06 1.10685e+06 1.10685e+06 1.10685e+06 1.10685e+06 1.10685e+06 1.10685e+06 1.10685e+06 1.10685e+06
1.10685e+06 1.10685e+06 1.10685e+06 1.10685e+06 1.10685e+06 1.10685e+06 1.10685e+06 1.10685e+06 1.10685e+06 1.10685e+06
1.10685e+06 1.10685e+06 1.10685e+06 1.10685e+06 1.10685e+06 1.10685e+06 1.10685e+06 1.10685e+06 1.10685e+06 1.10685e+06
1.10685e+06 1.10685e+06 1.10685e+06 1.10685e+06 1.10685e+06 1.10685e+06 1.10685e+06 1.10685e+06 1.10685e+06 1.10685e+06
1.10685e+06 1.10685e+06 1.10695e+06 1.10695e+06 1.10694e+06 1.10694e+06 1.10694e+06 1.10694e+06 1.10694e+06 1.10694e+06
1.10694e+06 1.10694e+06 1.10694e+06 1.10694e+06 1.10694e+06 1.10694e+06 1.10694e+06 1.10695e+06 1.10695e+06 1.10695e+06
1.10695e+06 1.10695e+06 1.10695e+06 1.10695e+06 1.10695e+06 1.10695e+06 1.10695e+06 1.10695e+06 1.10694e+06 1.10694e+06
1.10694e+06 1.10693e+06 1.10693e+06 1.10692e+06 1.10691e+06 1.10691e+06 1.1069e+06 1.1069e+06 1.1069e+06 1.10689e+06
1.10689e+06 1.10688e+06 1.10688e+06 1.10688e+06 1.10685e+06 1.10685e+06 1.10694e+06 1.10694e+06 1.10688e+06 1.10687e+06
1.10687e+06 1.10687e+06 1.10686e+06 1.10686e+06 1.10685e+06 1.10685e+06 1.10684e+06 1.10684e+06 1.10683e+06 1.10683e+06
1.10683e+06 1.10682e+06 1.10682e+06 1.10681e+06 1.10681e+06 1.10681e+06 1.10681e+06 1.10681e+06 1.10681e+06 1.10682e+06
1.10682e+06 1.10682e+06 1.10682e+06 1.10683e+06 1.10683e+06 1.10683e+06 1.10684e+06 1.10684e+06 1.10684e+06 1.10684e+06
1.10685e+06 1.10685e+06 1.10685e+06 1.10685e+06 1.10685e+06 1.10685e+06 1.10685e+06 1.10685e+06 1.10685e+06 1.10685e+06
1.10685e+06 1.10685e+06 1.10685e+06 1.10685e+06 1.10685e+06 1.10685e+06 1.10685e+06 1.10685e+06 1.10685e+06 1.10685e+06
1.10685e+06 1.10685e+06 1.10685e+06 1.10685e+06 1.10685e+06 1.10685e+06 1.10685e+06 1.10685e+06 1.10685e+06 1.10685e+06
1.10685e+06 1.10685e+06 1.10685e+06 1.10685e+06 1.10685e+06 1.10685e+06 1.10685e+06 1.10685e+06 1.10685e+06 1.10685e+06
1.10685e+06 1.10685e+06 1.10685e+06 1.10685e+06 1.10695e+06 1.10695e+06 1.10695e+06 1.10694e+06 1.10694e+06 1.10694e+06
1.10694e+06 1.10694e+06 1.10685e+06 1.10685e+06 1.10695e+06 1.10695e+06 1.10688e+06 1.10687e+06 1.10687e+06 1.10687e+06
1.10686e+06 1.10686e+06 1.10685e+06 1.10685e+06 1.10684e+06 1.10684e+06 1.10683e+06 1.10682e+06 1.10682e+06 1.10681e+06
1.10681e+06 1.10681e+06 1.10681e+06 1.1068e+06 1.1068e+06 1.1068e+06 1.10681e+06 1.10681e+06 1.10681e+06 1.10681e+06
1.10682e+06 1.10682e+06 1.10682e+06 1.10683e+06 1.10683e+06 1.10684e+06 1.10684e+06 1.10684e+06 1.10684e+06 1.10685e+06
1.10684e+06 1.10685e+06 1.10685e+06 1.10685e+06 1.10685e+06 1.10685e+06 1.10685e+06 1.10685e+06 1.10685e+06 1.10685e+06
1.10685e+06 1.10685e+06 1.10685e+06 1.10685e+06 1.10685e+06 1.10685e+06 1.10685e+06 1.10685e+06 1.10685e+06 1.10685e+06
1.10685e+06 1.10685e+06 1.10685e+06 1.10685e+06 1.10685e+06 1.10685e+06 1.10685e+06 1.10685e+06 1.10685e+06 1.10685e+06
1.10685e+06 1.10685e+06 1.10685e+06 1.10685e+06 1.10685e+06 1.10685e+06 1.10685e+06 1.10685e+06 1.10685e+06 1.10685e+06
1.10685e+06 1.10685e+06 1.10685e+06 1.10685e+06 1.10685e+06 1.10696e+06 1.10696e+06 1.10695e+06 1.10695e+06 1.10694e+06
1.10685e+06 1.10685e+06 1.10695e+06 1.10695e+06 1.10695e+06 1.10697e+06 1.10696e+06 1.10697e+06 1.10688e+06 1.10687e+06
1.10687e+06 1.10687e+06 1.10688e+06 1.10687e+06 1.10687e+06 1.10686e+06 1.10686e+06 1.10687e+06 1.10686e+06 1.10686e+06
1.10686e+06 1.10686e+06 1.10686e+06 1.10685e+06 1.10685e+06 1.10684e+06 1.10685e+06 1.10685e+06 1.10684e+06 1.10683e+06
1.10683e+06 1.10683e+06 1.10684e+06 1.10682e+06 1.10682e+06 1.10681e+06 1.10682e+06 1.10683e+06 1.1068e+06 1.10681e+06
1.10681e+06 1.1068e+06 1.1068e+06 1.1068e+06 1.10679e+06 1.10679e+06 1.10678e+06 1.1068e+06 1.1068e+06 1.10678e+06
1.10678e+06 1.10678e+06 1.10679e+06 1.1068e+06 1.10678e+06 1.10678e+06 1.10678e+06 1.1068e+06 1.10679e+06 1.10679e+06
1.10679e+06 1.10679e+06 1.1068e+06 1.1068e+06 1.1068e+06 1.1068e+06 1.10681e+06 1.10681e+06 1.10681e+06 1.10681e+06
1.10681e+06 1.10682e+06 1.10682e+06 1.10682e+06 1.10682e+06 1.10683e+06 1.10683e+06 1.10683e+06 1.10683e+06 1.10684e+06
1.10684e+06 1.10684e+06 1.10684e+06 1.10684e+06 1.10684e+06 1.10685e+06 1.10685e+06 1.10684e+06 1.10684e+06 1.10685e+06
1.10685e+06 1.10685e+06 1.10685e+06 1.10685e+06 1.10685e+06 1.10685e+06 1.10685e+06 1.10685e+06 1.10685e+06 1.10685e+06
1.10685e+06 1.10685e+06 1.10685e+06 1.10685e+06 1.10685e+06 1.10685e+06 1.10685e+06 1.10685e+06 1.10685e+06 1.10685e+06
1.10685e+06 1.10685e+06 1.10685e+06 1.10685e+06 1.10685e+06 1.10685e+06 1.10685e+06 1.10685e+06 1.10685e+06 1.10685e+06
1.10685e+06 1.10685e+06 1.10685e+06 1.10685e+06 1.10685e+06 1.10685e+06 1.10685e+06 1.10685e+06 1.10685e+06 1.10685e+06
1.10685e+06 1.10685e+06 1.10685e+06 1.10685e+06 1.10685e+06 1.10696e+06 1.10696e+06 1.10696e+06 1.10695e+06 1.10695e+06
1.10685e+06 1.10685e+06 1.10697e+06 1.10697e+06 1.10697e+06 1.10697e+06 1.10698e+06 1.10699e+06 1.10699e+06 1.10699e+06
1.10698e+06 1.10688e+06 1.10688e+06 1.10688e+06 1.10688e+06 1.10687e+06 1.10687e+06 1.10687e+06 1.10687e+06 1.10686e+06
1.10686e+06 1.10686e+06 1.10686e+06 1.10685e+06 1.10685e+06 1.10685e+06 1.10685e+06 1.10683e+06 1.10683e+06 1.10683e+06
1.10683e+06 1.10681e+06 1.10681e+06 1.10681e+06 1.10682e+06 1.10679e+06 1.10679e+06 1.10679e+06 1.10679e+06 1.10677e+06
1.10677e+06 1.10677e+06 1.10677e+06 1.10676e+06 1.10676e+06 1.10676e+06 1.10676e+06 1.10676e+06 1.10676e+06 1.10677e+06
1.10676e+06 1.10677e+06 1.10677e+06 1.10678e+06 1.10677e+06 1.10679e+06 1.10679e+06 1.10679e+06 1.10679e+06 1.1068e+06
1.1068e+06 1.10681e+06 1.10681e+06 1.10682e+06 1.10682e+06 1.10682e+06 1.10682e+06 1.10683e+06 1.10684e+06 1.10684e+06
1.10683e+06 1.10685e+06 1.10685e+06 1.10685e+06 1.10685e+06 1.10685e+06 1.10685e+06 1.10685e+06 1.10685e+06 1.10685e+06
1.10685e+06 1.10685e+06 1.10685e+06 1.10685e+06 1.10685e+06 1.10685e+06 1.10685e+06 1.10685e+06 1.10685e+06 1.10685e+06
1.10685e+06 1.10685e+06 1.10685e+06 1.10685e+06 1.10685e+06 1.10685e+06 1.10685e+06 1.10685e+06 1.10685e+06 1.10685e+06
1.10685e+06 1.10685e+06 1.10685e+06 1.10685e+06 1.10685e+06 1.10685e+06 1.10685e+06 1.10685e+06 1.10685e+06 1.10685e+06
1.10685e+06 1.10685e+06 1.10685e+06 1.10685e+06 1.10685e+06 1.10685e+06 1.10685e+06 1.10685e+06 1.10685e+06 1.10685e+06
1.10685e+06 1.10685e+06 1.10685e+06 1.10685e+06 1.10697e+06 1.10697e+06 1.10696e+06 1.10696e+06 1.10695e+06 1.10685e+06
1.10685e+06 1.10696e+06 1.10696e+06 1.10697e+06 1.10697e+06 1.10696e+06 1.10688e+06 1.10688e+06 1.10688e+06 1.10688e+06
1.10687e+06 1.10687e+06 1.10687e+06 1.10687e+06 1.10686e+06 1.10686e+06 1.10686e+06 1.10686e+06 1.10685e+06 1.10685e+06
1.10685e+06 1.10685e+06 1.10683e+06 1.10683e+06 1.10683e+06 1.10683e+06 1.1068e+06 1.1068e+06 1.1068e+06 1.1068e+06
1.10676e+06 1.10676e+06 1.10675e+06 1.10676e+06 1.10673e+06 1.10672e+06 1.10672e+06 1.10673e+06 1.10671e+06 1.1067e+06
1.1067e+06 1.10671e+06 1.10671e+06 1.10671e+06 1.10671e+06 1.10672e+06 1.10673e+06 1.10673e+06 1.10673e+06 1.10674e+06
1.10676e+06 1.10675e+06 1.10676e+06 1.10676e+06 1.10678e+06 1.10678e+06 1.10678e+06 1.10679e+06 1.10683e+06 1.10683e+06
1.10683e+06 1.10683e+06 1.10685e+06 1.10685e+06 1.10685e+06 1.10685e+06 1.10685e+06 1.10685e+06 1.10685e+06 1.10685e+06
1.10685e+06 1.10685e+06 1.10685e+06 1.10685e+06 1.10685e+06 1.10685e+06 1.10685e+06 1.10685e+06 1.10685e+06 1.10685e+06