# vtk DataFile Version 2.0
sampleSurface
ASCII
DATASET POLYDATA
POINTS 29975 float
-1.9 1.23597e-23 -2 -2 7.70685e-24 -2 -2 8.56447e-18 -1.90008 -1.90002 -2.06795e-25
-1.90008 -1.8 2.64257e-23 -2 -1.80002 -2.06795e-25 -1.90008 -1.7 5.8376e-23 -2
-1.70002 0 -1.90008 -1.6 1.25553e-22 -2 -1.60003 0 -1.90009 -1.5
2.59613e-22 -2 -1.50003 0 -1.90009 -1.4 5.1359e-22 -2 -1.40003 0
-1.90009 -1.3 9.68249e-22 -2 -1.30003 -4.1359e-25 -1.90009 -1.2 1.7325e-21 -2
-1.20003 0 -1.90009 -1.1 2.92959e-21 -2 -1.10003 0 -1.90009 -1
4.66074e-21 -2 -1.00003 0 -1.90009 -0.9 6.94544e-21 -2 -0.900028 0
-1.90009 -0.8 9.6544e-21 -2 -0.800028 4.1359e-25 -1.9001 -0.7 1.24691e-20 -2
-0.700023 0 -1.9001 -0.6 1.49031e-20 -2 -0.600006 0 -1.9001 -0.5
1.63724e-20 -2 -0.500001 0 -1.9001 -0.4 1.63776e-20 -2 -0.4 0
-1.9001 -0.3 1.4601e-20 -2 -0.3 0 -1.9001 -0.2 1.10266e-20 -2
-0.2 0 -1.9001 -0.1 6.00259e-21 -2 -0.1 1.65436e-24 -1.9001 -2.01598e-21
0 -2 -2.04443e-21 0 -2 -0.0118749 2.06795e-25 -1.9001 0.00389139 -2.35099e-38
-2 1.42248e-10 0 -1.9001 0.1 0 -2 0.1 1.65436e-24 -1.9001
0.2 0 -2 0.2 0 -1.9001 0.3 -1.50463e-36 -2 0.3
0 -1.9001 0.4 0 -2 0.4 0 -1.9001 0.5 0
-2 0.500001 0 -1.9001 0.6 0 -2 0.600004 0 -1.9001
0.7 0 -2 0.700005 0 -1.9001 0.8 0 -2 0.800005
-1.65436e-24 -1.9001 0.9 0 -2 0.900005 0 -1.9001 1 0
-2 1.00001 0 -1.9001 1.1 0 -2 1.10001 0 -1.9001
1.2 0 -2 1.20001 -8.27181e-25 -1.90009 1.3 0 -2 1.30001
0 -1.90009 1.4 0 -2 1.40002 0 -1.90009 1.5 0
-2 1.50002 0 -1.90009 1.6 0 -2 1.60003 0 -1.90008
1.7 0 -2 1.70004 0 -1.90008 1.80004 0 -2 1.80006
-8.27181e-25 -1.9001 1.90009 0 -2 1.9001 0 -1.90015 2.00012 -1.65436e-24
-2 2.00013 1.65436e-24 -1.90019 2.10015 1.65436e-24 -2 2.10016 1.65436e-24 -1.90024
2.20018 -1.65436e-24 -2 2.20019 0 -1.90028 2.30021 3.30872e-24 -2 2.30022
3.30872e-24 -1.90031 2.40023 -3.30872e-24 -2 2.40024 0 -1.90035 2.50025 0
-2 2.50026 0 -1.90037 2.60027 3.30872e-24 -2 2.60027 -3.30872e-24 -1.9004
2.70028 -3.30872e-24 -2 2.70029 -3.30872e-24 -1.90042 2.8003 0 -2 2.80031
3.30872e-24 -1.90044 2.90031 0 -2 2.90032 -3.30872e-24 -1.90046 3.00032 3.30872e-24
-2 3.00033 0 -1.90048 3.10034 3.30872e-24 -2 3.10034 3.30872e-24 -1.9005
3.20035 0 -2 3.20035 0 -1.90051 3.30036 0 -2 3.30036
0 -1.90052 3.40036 3.30872e-24 -2 3.40037 0 -1.90054 3.50037 0
-2 3.50038 4.23516e-22 -1.90054 3.60038 0 -2 3.60039 0 -1.90055
3.70039 0 -2 3.70041 8.47033e-22 -1.90055 3.8004 0 -2 3.80048
3.38813e-21 -1.90051 3.9004 -4.23516e-22 -2 3.90049 -6.77626e-21 -1.90048 4.0004 0
-2 4.00051 0 -1.90041 4.10043 -3.38813e-21 -2 4.10058 0 -1.90022
4.20043 -6.77626e-21 -2 4.20058 1.35525e-20 -1.90011 4.30041 6.77626e-21 -2 4.30055
-1.35525e-20 -1.90008 4.40039 6.77626e-21 -2 4.40052 0 -1.90007 4.50041 6.77626e-21
-2 4.50049 0 -1.90006 4.60045 0 -2 4.60046 0 -1.9
4.70042 -1.35525e-20 -2 4.70043 1.35525e-20 -1.89999 4.80039 0 -2 4.80039
1.35525e-20 -1.89999 4.90036 0 -2 4.90036 0 -1.89999 5.00033 -1.35525e-20
-2 5.00033 -1.35525e-20 -1.89999 5.10029 0 -2 5.1003 0 -1.89999
5.20026 6.77626e-21 -2 5.20026 0 -1.89999 5.30023 6.77626e-21 -2 5.30023
0 -1.89999 5.4002 0 -2 5.4002 0 -1.89999 5.50016 0
-2 5.50017 -6.77626e-21 -1.89999 5.60013 0 -2 5.60013 6.77626e-21 -1.9
5.7001 0 -2 5.7001 3.38813e-21 -1.9 5.80007 0 -2 5.80007
0 -1.9 5.90003 -8.47033e-22 -2 5.90003 0 -1.9 6 -0
-1.9 6 0 -2 -2 4.16864e-18 -1.80015 -1.90005 -4.1359e-25 -1.80016
-1.80005 0 -1.80016 -1.70005 -4.1359e-25 -1.80017 -1.60005 8.27181e-25 -1.80017 -1.50005
-4.1359e-25 -1.80017 -1.40005 8.27181e-25 -1.80018 -1.30005 0 -1.80018 -1.20005 -8.27181e-25
-1.80018 -1.10006 -8.27181e-25 -1.80019 -1.00006 0 -1.80019 -0.900056 0 -1.80019
-0.800055 8.27181e-25 -1.80019 -0.700046 0 -1.80019 -0.600011 3.30872e-24 -1.8002 -0.500001
3.30872e-24 -1.8002 -0.4 0 -1.8002 -0.3 0 -1.8002 -0.2 0
-1.8002 -0.1 0 -1.8002 -0.0119173 0 -1.8002 2.86845e-10 0 -1.8002
0.1 -3.30872e-24 -1.8002 0.2 0 -1.8002 0.3 3.30872e-24 -1.8002 0.4
3.30872e-24 -1.8002 0.500002 -3.30872e-24 -1.8002 0.600008 0 -1.8002 0.70001 0
-1.8002 0.80001 -3.30872e-24 -1.8002 0.90001 0 -1.8002 1.00001 0 -1.80019
1.10001 -1.65436e-24 -1.80019 1.20003 0 -1.80019 1.30003 8.27181e-25 -1.80018 1.40003
-8.27181e-25 -1.80018 1.50004 0 -1.80017 1.60008 -8.27181e-25 -1.80016 1.70009 -8.27181e-25
-1.80014 1.80011 0 -1.80015 1.90013 0 -1.80019 2.00015 1.65436e-24 -1.80022
2.10018 -3.30872e-24 -1.80026 2.2002 0 -1.8003 2.30023 0 -1.80033 2.40025
0 -1.80036 2.50027 -3.30872e-24 -1.80039 2.60028 0 -1.80041 2.7003 -3.30872e-24
-1.80044 2.80031 -3.30872e-24 -1.80046 2.90033 0 -1.80047 3.00034 -1.32349e-23 -1.80049
3.10035 0 -1.80051 3.20036 0 -1.80051 3.30038 0 -1.80053 3.4004
8.47033e-22 -1.80053 3.50046 -3.38813e-21 -1.80049 3.60049 0 -1.80048 3.70055 -6.77626e-21
-1.80043 3.80067 0 -1.80019 3.90068 0 -1.80011 4.00065 0 -1.80008
4.10062 0 -1.80002 4.20059 0 -1.79999 4.30056 -1.35525e-20 -1.79999 4.40053
0 -1.79999 4.50049 1.35525e-20 -1.79999 4.60046 -1.35525e-20 -1.79998 4.70043 0
-1.79998 4.8004 -1.35525e-20 -1.79999 4.90036 0 -1.79999 5.00033 0 -1.79999
5.1003 0 -1.79999 5.20027 6.77626e-21 -1.79999 5.30023 0 -1.79999 5.4002
-6.77626e-21 -1.79999 5.50017 0 -1.79999 5.60013 -3.38813e-21 -1.8 5.7001 0
-1.8 5.80007 -1.69407e-21 -1.8 5.90003 8.47033e-22 -1.8 6 -0 -1.8
-2 -1.05256e-18 -1.70023 -1.90007 0 -1.70024 -1.80007 0 -1.70024 -1.70007
0 -1.70025 -1.60008 -8.27181e-25 -1.70025 -1.50008 8.27181e-25 -1.70026 -1.40008 0
-1.70026 -1.30008 -8.27181e-25 -1.70027 -1.20008 8.27181e-25 -1.70027 -1.10008 0 -1.70028
-1.00008 -8.27181e-25 -1.70028 -0.900084 0 -1.70028 -0.800083 0 -1.70029 -0.700069
0 -1.70029 -0.600017 0 -1.7003 -0.500002 6.61744e-24 -1.7003 -0.4 0
-1.7003 -0.3 0 -1.7003 -0.2 -6.61744e-24 -1.7003 -0.1 -3.30872e-24 -1.7003
-0.0119194 0 -1.7003 4.30425e-10 0 -1.7003 0.1 0 -1.7003 0.2
0 -1.7003 0.3 6.61744e-24 -1.7003 0.4 6.61744e-24 -1.7003 0.500003 0
-1.7003 0.600013 3.30872e-24 -1.7003 0.700015 3.30872e-24 -1.7003 0.800016 0 -1.7003
0.900015 0 -1.70029 1.00002 3.30872e-24 -1.70029 1.10003 -3.30872e-24 -1.70029 1.20004
0 -1.70028 1.30005 0 -1.70027 1.40005 0 -1.70027 1.50008 0
-1.70025 1.60013 1.65436e-24 -1.70023 1.70014 0 -1.70021 1.80015 1.65436e-24 -1.70022
1.90016 0 -1.70024 2.00018 0 -1.70026 2.1002 0 -1.7003 2.20022
3.30872e-24 -1.70033 2.30024 -3.30872e-24 -1.70036 2.40026 0 -1.70038 2.50028 0
-1.70041 2.6003 0 -1.70043 2.70031 0 -1.70045 2.80032 1.32349e-23 -1.70047
2.90034 5.29396e-23 -1.70049 3.00035 4.23516e-22 -1.7005 3.10038 0 -1.7005 3.20044
-3.38813e-21 -1.70047 3.30047 0 -1.70046 3.40053 1.35525e-20 -1.70041 3.50065 1.35525e-20
-1.70019 3.60068 0 -1.70011 3.70069 0 -1.70008 3.8007 0 -1.70001
3.90069 0 -1.69999 4.00066 0 -1.69999 4.10062 0 -1.69998 4.20059
0 -1.69998 4.30056 0 -1.69998 4.40053 0 -1.69998 4.5005 1.35525e-20
-1.69998 4.60046 0 -1.69998 4.70043 0 -1.69998 4.8004 0 -1.69999
4.90037 0 -1.69999 5.00033 1.35525e-20 -1.69999 5.1003 0 -1.69999 5.20027
0 -1.69999 5.30023 -6.77626e-21 -1.69999 5.4002 0 -1.69999 5.50017 0
-1.69999 5.60013 0 -1.7 5.7001 3.38813e-21 -1.7 5.80007 0 -1.7
5.90003 0 -1.7 6 -0 -1.7 -2 1.18217e-17 -1.6003 -1.90009
8.27181e-25 -1.60031 -1.80009 0 -1.60032 -1.7001 0 -1.60033 -1.6001 0
-1.60034 -1.5001 -8.27181e-25 -1.60034 -1.4001 0 -1.60035 -1.30011 0 -1.60036
-1.20011 0 -1.60036 -1.10011 1.65436e-24 -1.60037 -1.00011 1.65436e-24 -1.60037 -0.900112
0 -1.60038 -0.800111 1.65436e-24 -1.60038 -0.700092 0 -1.60039 -0.600022 0
-1.6004 -0.500002 0 -1.6004 -0.4 0 -1.6004 -0.3 0 -1.6004
-0.2 -6.61744e-24 -1.6004 -0.1 0 -1.6004 -0.0119194 0 -1.6004 6
0 -1.6 6 0 -1.6 6 0 -1.68973 5.73901e-10 0
-1.6004 0.1 0 -1.6004 0.2 0 -1.6004 0.3 -6.61744e-24 -1.6004
0.4 -6.61744e-24 -1.6004 0.500004 0 -1.6004 0.600017 0 -1.6004 0.70002
0 -1.6004 0.800021 -6.61744e-24 -1.60039 0.900021 0 -1.60039 1.00003 -3.30872e-24
-1.60039 1.10005 3.30872e-24 -1.60038 1.20006 0 -1.60037 1.30007 0 -1.60036
1.40009 0 -1.60035 1.50016 -1.65436e-24 -1.60032 1.60019 -3.30872e-24 -1.60029 1.70019
0 -1.60028 1.80019 -3.30872e-24 -1.60028 1.9002 0 -1.60029 2.00021 -3.30872e-24
-1.60031 2.10023 0 -1.60034 2.20025 0 -1.60036 2.30026 0 -1.60039
2.40028 -3.30872e-24 -1.60041 2.5003 3.30872e-24 -1.60043 2.60031 0 -1.60045 2.70032
5.29396e-23 -1.60047 2.80034 0 -1.60048 2.90037 0 -1.60049 3.00044 -3.38813e-21
-1.60045 3.10051 0 -1.60039 3.20063 -1.35525e-20 -1.60018 3.30065 -1.35525e-20 -1.6001
3.40067 2.71051e-20 -1.60008 3.50068 0 -1.60001 3.60069 0 -1.59999 3.7007
0 -1.59998 3.80071 0 -1.59998 3.90069 0 -1.59997 4.00066 -2.71051e-20
-1.59998 4.10063 0 -1.59998 4.2006 0 -1.59998 4.30057 0 -1.59998
4.40053 0 -1.59998 4.5005 -2.71051e-20 -1.59998 4.60047 0 -1.59998 4.70043
0 -1.59998 4.8004 0 -1.59999 4.90037 1.35525e-20 -1.59999 5.00034 0
-1.59999 5.1003 0 -1.59999 5.20027 6.77626e-21 -1.59999 5.30024 0 -1.59999
5.4002 -6.77626e-21 -1.59999 5.50017 0 -1.59999 5.60014 3.38813e-21 -1.6 5.7001
3.38813e-21 -1.6 5.80007 0 -1.6 5.90003 0 -1.6 -2 1.01824e-18
-1.50036 -1.90012 -1.65436e-24 -1.50038 -1.80012 -1.65436e-24 -1.50039 -1.70012 -1.65436e-24 -1.50041
-1.60012 0 -1.50042 -1.50013 1.65436e-24 -1.50043 -1.40013 0 -1.50044 -1.30013
-1.65436e-24 -1.50045 -1.20013 -1.65436e-24 -1.50045 -1.10014 0 -1.50046 -1.00014 0
-1.50047 -0.90014 1.65436e-24 -1.50047 -0.800139 0 -1.50048 -0.700115 0 -1.50048
-0.600028 0 -1.5005 -0.500003 0 -1.5005 -0.4 -6.61744e-24 -1.5005 -0.3
6.61744e-24 -1.5005 -0.2 6.61744e-24 -1.5005 -0.1 6.61744e-24 -1.5005 -0.0119194 8.27181e-25
-1.5005 6 0 -1.5 6 -0 -1.5 7.17376e-10 0 -1.5005
0.1 0 -1.5005 0.2 6.61744e-24 -1.5005 0.3 0 -1.5005 0.4
0 -1.5005 0.500005 -6.61744e-24 -1.5005 0.600021 -6.61744e-24 -1.5005 0.700026 -6.61744e-24
-1.5005 0.800026 0 -1.50049 0.900029 0 -1.50049 1.00005 0 -1.50048
1.10007 0 -1.50047 1.20008 0 -1.50046 1.3001 -1.65436e-24 -1.50045 1.40014
1.65436e-24 -1.50043 1.50022 0 -1.50038 1.60024 3.30872e-24 -1.50036 1.70024 0
-1.50035 1.80024 0 -1.50035 1.90024 0 -1.50035 2.00025 0 -1.50036
2.10026 0 -1.50038 2.20027 3.30872e-24 -1.5004 2.30029 0 -1.50042 2.4003
0 -1.50044 2.50031 5.29396e-23 -1.50046 2.60033 0 -1.50047 2.70036 0
[...]
POINT_DATA 29975
FIELD attributes 1
U 3 29975 float
10 0 0 10 0 0 10 0 0 9.99965 -1.3244e-05
-0.000758867 10 0 0 9.99988 -2.28044e-05 -0.0020828 10 0 0
10.0012 -3.01445e-05 -0.00338444 10 0 0 10.0037 -3.59081e-05 -0.00448553 10
0 0 10.0071 -4.04234e-05 -0.00537241 10 0 0 10.0115 -4.38903e-05
-0.00611538 10 0 0 10.0167 -4.64317e-05 -0.00675778 10 0 0
10.0226 -4.81437e-05 -0.00725551 10 0 0 10.029 -4.91005e-05 -0.0075925 10
0 0 10.0359 -4.93649e-05 -0.00775698 10 0 0 10.043 -4.89935e-05
-0.00773121 10 0 0 10.05 -4.80398e-05 -0.00750409 10 0 0
10.0567 -4.65556e-05 -0.00707519 10 0 0 10.063 -4.45939e-05 -0.00645625 10
0 0 10.0686 -4.22108e-05 -0.00567026 10 0 0 10.0733 -3.94654e-05
-0.00474653 10 0 0 10.077 -3.64206e-05 -0.00371536 10 0 0
10.0796 -3.31375e-05 -0.00260517 10 0 0 10.081 -2.96732e-05 -0.00144424 10
-5.21189e-18 -5.14524e-17 10 0 0 10.0811 -2.64936e-05 -0.000398263 10 0
0 10.0811 -2.60651e-05 -0.000257318 10 0 0 10.08 -2.23481e-05 0.000939084
10 0 0 10.0777 -1.85826e-05 0.0021184 10 0 0 10.0742
-1.48447e-05 0.00323988 10 0 0 10.0695 -1.12001e-05 0.00427285 10 0
0 10.0638 -7.69423e-06 0.00519073 10 0 0 10.0572 -4.36756e-06 0.00595888
10 0 0 10.05 -1.25698e-06 0.00654293 10 0 0 10.0423
1.60627e-06 0.00691634 10 0 0 10.0344 4.19776e-06 0.00706561 10 0
0 10.0266 6.5003e-06 0.00699328 10 0 0 10.0192 8.50471e-06 0.00671821
10 0 0 10.0123 1.02103e-05 0.00627346 10 0 0 10.0062
1.16239e-05 0.00570194 10 0 0 10.001 1.2758e-05 0.00505069 10 0
0 9.99663 1.36307e-05 0.00436529 10 0 0 9.99316 1.42637e-05 0.00368535
10 0 0 9.99053 1.468e-05 0.00304177 10 0 0 9.98865
1.49018e-05 0.0024552 10 0 0 9.98742 1.49536e-05 0.001938 10 0
0 9.98673 1.48614e-05 0.00149515 10 0 0 9.98647 1.46491e-05 0.00112518
10 0 0 9.98655 1.43386e-05 0.000822213 10 0 0 9.98688
1.39492e-05 0.000578437 10 0 0 9.9874 1.34982e-05 0.00038551 10 0
0 9.98803 1.30005e-05 0.000235058 10 0 0 9.98875 1.24684e-05 0.000119738
10 0 0 9.9895 1.19126e-05 3.34328e-05 10 0 0 9.99026
1.13431e-05 -2.94901e-05 10 0 0 9.99102 1.07689e-05 -7.45893e-05 10 0
0 9.99175 1.01957e-05 -0.000106315 10 0 0 9.99245 9.62568e-06 -0.000127499
10 0 0 9.99312 9.06531e-06 -0.000140427 10 0 0 9.99374
8.5184e-06 -0.000147094 10 0 0 9.99432 7.99092e-06 -0.000148975 10 0
0 9.99485 7.48137e-06 -0.000147458 10 0 0 9.99535 6.99049e-06 -0.000143531
10 0 0 9.9958 6.52025e-06 -0.000137852 10 0 0 9.99621
6.06222e-06 -0.000131097 10 0 0 9.99658 5.61579e-06 -0.000123641 10 0
0 9.99692 5.14215e-06 -0.000115907 10 0 0 9.99723 4.79445e-06 -0.000108116
10 0 0 9.99751 4.48995e-06 -0.000100205 10 0 0 9.99776
4.09169e-06 -9.2404e-05 10 0 0 9.99798 3.73964e-06 -8.49276e-05 10 0
0 9.99819 3.4202e-06 -7.78615e-05 10 0 0 9.99837 3.12513e-06 -7.12494e-05
10 0 0 9.99853 2.84617e-06 -6.51261e-05 10 0 0 9.99868
2.57644e-06 -5.95915e-05 10 0 0 9.99881 2.32843e-06 -5.46966e-05 10 0
0 9.99893 2.09821e-06 -5.05069e-05 10 0 0 9.99904 1.88498e-06 -4.71177e-05
10 0 0 9.99914 1.68934e-06 -4.46651e-05 10 0 0 9.99924
1.51211e-06 -4.33524e-05 10 0 0 9.99933 1.35442e-06 -4.34974e-05 10 0
0 9.99941 1.21768e-06 -4.55024e-05 10 0 0 9.9995 1.10394e-06 -5.00249e-05
10 0 0 9.9996 1.01566e-06 -5.89032e-05 10 0 0 9.9997
9.5666e-07 -7.28287e-05 10 0 0 9.99984 9.26759e-07 -9.5667e-05 9.99992 9.18496e-07
-0.000110455 10 2.26841e-07 -1.63539e-05 10 0 0 10.0002 -2.25159e-05 -0.00339188
10.0015 -4.00316e-05 -0.00752028 10.0043 -5.39171e-05 -0.0115041 10.0087 -6.49861e-05 -0.0150222 10.0147
-7.37375e-05 -0.0180446 10.0223 -8.05007e-05 -0.0206006 10.0312 -8.55041e-05 -0.0227193 10.0413 -8.89228e-05
-0.0243775 10.0525 -9.08984e-05 -0.0255216 10.0643 -9.15522e-05 -0.0260855 10.0765 -9.09942e-05 -0.026009
10.0887 -8.93276e-05 -0.0252561 10.1004 -8.66524e-05 -0.0238258 10.1113 -8.30698e-05 -0.0217573 10.1209
-7.86858e-05 -0.0191261 10.1291 -7.36122e-05 -0.0160293 10.1354 -6.79666e-05 -0.0125684 10.1398 -6.18628e-05
-0.0088394 10.1422 -5.54085e-05 -0.00493185 10.1424 -4.94899e-05 -0.00140409 10.1424 -4.86892e-05 -0.000926796
10.1404 -4.17647e-05 0.00310626 10.1363 -3.47293e-05 0.00706909 10.13 -2.77401e-05 0.0108375 10.1218
-2.09278e-05 0.0143168 10.1118 -1.43698e-05 0.0174128 10.1003 -8.14016e-06 0.0200084 10.0875 -2.30833e-06
0.0219907 10.074 3.06692e-06 0.0232734 10.0602 7.93966e-06 0.0238127 10.0465 1.22773e-05 0.0236165
10.0334 1.60621e-05 0.0227463 10.0213 1.92926e-05 0.0213093 10.0106 2.19806e-05 0.0194448 10.0013
2.41491e-05 0.0173059 9.99356 2.5831e-05 0.0150416 9.98739 2.70659e-05 0.0127826 9.98268 2.78952e-05
0.0106313 9.97929 2.83621e-05 0.00865879 9.97704 2.85108e-05 0.00690707 9.97575 2.83864e-05 0.005394
9.97523 2.80322e-05 0.00411739 9.97532 2.74885e-05 0.00306113 9.97586 2.6791e-05 0.00220204 9.97674
2.59715e-05 0.0015144 9.97785 2.5058e-05 0.000972133 9.9791 2.40745e-05 0.000551071 9.98043 2.3042e-05
0.00023009 9.9818 2.1978e-05 -9.65454e-06 9.98317 2.09005e-05 -0.000185502 9.9845 1.98224e-05 -0.000311721
9.98578 1.87491e-05 -0.000398727 9.98699 1.76878e-05 -0.000455126 9.98814 1.66542e-05 -0.000488013 9.98921
1.5654e-05 -0.000502885 9.9902 1.46569e-05 -0.000504474 9.99112 1.37163e-05 -0.000496197 9.99196 1.27855e-05
-0.000480947 9.99273 1.1834e-05 -0.000461041 9.99343 1.09886e-05 -0.000437576 9.99407 1.01589e-05 -0.000412093
9.99466 9.45796e-06 -0.000385634 9.99518 8.79967e-06 -0.000358744 9.99566 8.07615e-06 -0.000332146 9.99609
7.40796e-06 -0.000306402 9.99648 6.7844e-06 -0.000281869 9.99683 6.20254e-06 -0.000258796 9.99715 5.65629e-06
-0.0002374 9.99743 5.1382e-06 -0.000217933 9.99769 4.65616e-06 -0.0002006 9.99792 4.20836e-06 -0.000185629
9.99813 3.79458e-06 -0.000173309 9.99833 3.41564e-06 -0.000164018 9.99851 3.07268e-06 -0.000158277 9.99868
2.76736e-06 -0.000156818 9.99884 2.50208e-06 -0.000160659 9.999 2.27996e-06 -0.000171147 9.99916 2.10447e-06
-0.000190014 9.99934 1.97871e-06 -0.000218653 9.99954 1.90422e-06 -0.000254593 9.99965 1.88009e-06 -0.000273665
10 0 0 10.0008 -2.96456e-05 -0.00793313 10.0031 -5.36997e-05 -0.0161809 10.0072
-7.32433e-05 -0.0239065 10.0132 -8.90505e-05 -0.0307931 10.0211 -0.000101666 -0.0368132 10.0308 -0.000111485
-0.0419974 10.0422 -0.000118806 -0.0463414 10.0553 -0.000123864 -0.0497684 10.0697 -0.000126857 -0.0521522
10.0851 -0.000127957 -0.0533476 10.101 -0.000127322 -0.053226 10.1169 -0.000125099 -0.0517106 10.1322
-0.000121434 -0.0487994 10.1464 -0.000116469 -0.0445736 10.159 -0.000110355 -0.0391909 10.1695 -0.000103247
-0.0328529 10.1777 -9.53178e-05 -0.0257688 10.1834 -8.67304e-05 -0.0181405 10.1863 -7.76429e-05 -0.0101546
10.1865 -6.93246e-05 -0.00294293 10.1865 -6.8199e-05 -0.00196701 10.1838 -5.84654e-05 0.00627494 10.1782
-4.85398e-05 0.0143777 10.1698 -3.86672e-05 0.0220996 10.1589 -2.9052e-05 0.0292424 10.1456 -1.97956e-05
0.0356128 10.1303 -1.09994e-05 0.040965 10.1133 -2.76214e-06 0.0450651 10.0953 4.83257e-06 0.0477348
10.0768 1.17194e-05 0.0488828 10.0586 1.7852e-05 0.0485245 10.0413 2.32054e-05 0.0467851 10.0252
2.77778e-05 0.0438841 10.011 3.15869e-05 0.0401059 9.99878 3.46663e-05 0.0357627 9.98866 3.70627e-05
0.031158 9.98062 3.88307e-05 0.0265573 9.97453 4.00292e-05 0.0221693 9.97018 4.07201e-05 0.0181387
9.96733 4.09641e-05 0.0145502 9.96574 4.08217e-05 0.011439 9.96515 4.0353e-05 0.00880168 9.96536
3.96143e-05 0.00660805 9.96616 3.86556e-05 0.00481354 9.9674 3.75199e-05 0.00336781 9.96894 3.62468e-05
0.00221981 9.97067 3.48694e-05 0.00132122 9.97252 3.34203e-05 0.000628654 9.9744 3.19239e-05 0.000103823
9.97628 3.0417e-05 -0.000286482 9.97812 2.89034e-05 -0.000570154 9.97989 2.74022e-05 -0.000769604 9.98158
2.58527e-05 -0.000903034 9.98317 2.43881e-05 -0.000985123 9.98466 2.28958e-05 -0.00102794 9.98604 2.13228e-05
-0.00104126 9.98732 1.99677e-05 -0.00103186 9.9885 1.86815e-05 -0.0010061 9.98959 1.74228e-05 -0.000968729
9.99058 1.6223e-05 -0.000923064 9.99149 1.50462e-05 -0.000872364 9.99232 1.39614e-05 -0.000818826 9.99307
1.29366e-05 -0.000764082 9.99374 1.19204e-05 -0.000709608 9.99436 1.0964e-05 -0.000656499 9.99491 1.0061e-05
-0.000605559 9.99541 9.21112e-06 -0.000557409 9.99587 8.41243e-06 -0.000512583 9.99627 7.66116e-06 -0.00047157
9.99664 6.95975e-06 -0.000434811 9.99697 6.30776e-06 -0.000402765 9.99728 5.70559e-06 -0.000375955 9.99756
5.15427e-06 -0.000355012 9.99781 4.65528e-06 -0.000340717 9.99805 4.21083e-06 -0.000334038 9.99828 3.82404e-06
-0.00033612 9.9985 3.49886e-06 -0.000348168 9.99872 3.23947e-06 -0.000371086 9.99893 3.04911e-06 -0.000404202
9.99917 2.93101e-06 -0.000441101 9.9993 2.89092e-06 -0.000459138 10 0 0 10.0012
-3.55046e-05 -0.0140693 10.0043 -6.50378e-05 -0.0275012 10.0093 -8.94488e-05 -0.0397838 10.0161 -0.000109422
-0.0507687 10.025 -0.000125494 -0.0604869 10.0359 -0.000138084 -0.068968 10.0488 -0.000147529 -0.0761595
10.0637 -0.000154109 -0.0819002 10.0802 -0.000158065 -0.0859478 10.0979 -0.00015961 -0.088032 10.1164
-0.000158944 -0.0879185 10.1349 -0.000156257 -0.0854677 10.1528 -0.000151732 -0.080674 10.1693 -0.000145551
-0.0736787 10.1839 -0.000137894 -0.0647577 10.196 -0.000128936 -0.0542708 10.2053 -0.000118873 -0.0425786
10.2117 -0.000107978 -0.0299987 10.2149 -9.65624e-05 -0.0168249 10.2148 -8.62368e-05 -0.00490242 9.99892
3.92951e-06 -0.000667403 9.99892 3.92951e-06 -0.000667403 9.99926 2.99757e-06 -0.000480524 10.2148 -8.48396e-05
-0.00328901 10.2114 -7.27842e-05 0.0103662 10.2047 -6.02898e-05 0.0237444 10.1949 -4.76976e-05 0.0364626
10.1819 -3.54851e-05 0.0482874 10.1661 -2.37943e-05 0.058894 10.1478 -1.27029e-05 0.0678321 10.1275
-2.32458e-06 0.0746948 10.106 7.23706e-06 0.0791727 10.0839 1.58998e-05 0.0811053 10.0622 2.36052e-05
0.0805161 10.0416 3.03221e-05 0.0776168 10.0227 3.60498e-05 0.0727815 10.0061 4.08157e-05 0.0664926
9.99193 4.4665e-05 0.0592769 9.98038 4.76576e-05 0.0516437 9.97136 4.98632e-05 0.0440351 9.96467
5.13588e-05 0.0367939 9.96004 5.2224e-05 0.0301539 9.95714 5.25316e-05 0.0242481 9.95569 5.23554e-05
0.0191276 9.95537 5.17713e-05 0.0147821 9.95594 5.08499e-05 0.0111605 9.95717 4.96536e-05 0.00818972
9.95888 4.82335e-05 0.00578752 9.96091 4.66421e-05 0.00387137 9.96313 4.49193e-05 0.00236334 9.96547
4.31249e-05 0.00119322 9.96785 4.12666e-05 0.000299158 9.9702 3.94176e-05 -0.000371917 9.97249 3.74248e-05
-0.000864693 9.9747 3.54405e-05 -0.00121594 9.97679 3.32168e-05 -0.00145567 9.97877 3.13532e-05 -0.0016076
9.98063 2.95535e-05 -0.00169184 9.98236 2.77758e-05 -0.00172435 9.98396 2.60612e-05 -0.00171739 9.98544
2.43823e-05 -0.00168156 9.9868 2.27526e-05 -0.00162476 9.98804 2.11953e-05 -0.00155324 9.98918 1.9694e-05
-0.00147227 9.99022 1.82711e-05 -0.00138567 9.99116 1.69198e-05 -0.00129645 9.99201 1.56232e-05 -0.00120703
9.99279 1.43945e-05 -0.00111928 9.99349 1.32308e-05 -0.00103465 9.99412 1.21323e-05 -0.000954298 9.9947
1.10986e-05 -0.000879155 9.99521 1.0128e-05 -0.00081004 9.99568 9.22103e-06 -0.000747686 9.9961 8.37772e-06
-0.000692813 9.99649 7.59876e-06 -0.000646173 9.99684 6.88535e-06 -0.0006086 9.99716 6.23935e-06 -0.000581027
9.99746 5.66344e-06 -0.000564471 9.99774 5.16134e-06 -0.000559931 9.99801 4.73773e-06 -0.000568098 9.99826
4.39754e-06 -0.000588756 9.99851 4.14468e-06 -0.000619478 9.99878 3.98472e-06 -0.000652132 10 0
0 10.0014 -4.05765e-05 -0.0213766 10.0048 -7.48244e-05 -0.0407828 10.0099 -0.000103454 -0.0582148
10.0169 -0.00012707 -0.073823 10.0258 -0.000146189 -0.0877675 10.0369 -0.000161242 -0.100102 10.0502
-0.000172588 -0.110713 10.0658 -0.000180534 -0.119311 10.0833 -0.000185354 -0.125482 10.1025 -0.000187298
-0.128769 10.1225 -0.000186599 -0.128781 10.1428 -0.000183486 -0.125284 10.1623 -0.00017818 -0.118266
10.1803 -0.000170898 -0.107955 10.1961 -0.000161851 -0.0947893 10.209 -0.000151221 -0.0793312 10.2189
-0.000139207 -0.0621501 10.2254 -0.000126186 -0.0437289 10.2284 -0.000112606 -0.0244777 10.228 -0.000100349
-0.00708317 9.99854 4.9832e-06 -0.000890771 9.99854 4.9832e-06 -0.000890771 10.228 -9.86909e-05 -0.00472926
10.224 -8.43787e-05 0.0151583 10.2165 -6.95649e-05 0.0346567 10.2056 -5.46164e-05 0.0533095 10.1912
-4.00916e-05 0.0707668 10.1735 -2.62041e-05 0.086481 10.1529 -1.30489e-05 0.0997653 10.1301 -7.57191e-07
0.109984 10.1057 1.05482e-05 0.116644 10.0809 2.07694e-05 0.119485 10.0565 2.98369e-05 0.118536
10.0335 3.77133e-05 0.114125 10.0127 4.4405e-05 0.106832 9.99461 4.99533e-05 0.0974031 9.97956
5.44149e-05 0.0866448 9.96758 5.78651e-05 0.0753296 9.95853 6.0392e-05 0.064117 9.95212 6.20927e-05
0.0535053 9.94796 6.30633e-05 0.0438229 9.94568 6.33828e-05 0.0352461 9.9449 6.31358e-05 0.0278312
9.94528 6.24168e-05 0.0215488 9.94654 6.13092e-05 0.0163157 9.94844 5.98901e-05 0.0120203 9.95078
5.8214e-05 0.00854144 9.95341 5.6371e-05 0.00575906 9.95621 5.43718e-05 0.00356121 9.95908 5.23301e-05
0.00184774 9.96195 5.00062e-05 0.000531051 9.96477 4.76827e-05 -0.000463765 9.9675 4.49074e-05 -0.00119975
9.97011 4.26532e-05 -0.00172879 9.97259 4.04122e-05 -0.0020937 9.97492 3.82237e-05 -0.00232928 9.9771
3.60226e-05 -0.00246456 9.97913 3.38735e-05 -0.00252243 9.98101 3.17801e-05 -0.00252133 9.98275 2.97475e-05
-0.00247647 9.98434 2.77796e-05 -0.00239958 9.98581 2.59026e-05 -0.00230003 9.98714 2.40991e-05 -0.00218538
9.98836 2.23771e-05 -0.00206145 9.98947 2.07367e-05 -0.00193283 9.99048 1.9173e-05 -0.00180313 9.9914
1.76883e-05 -0.0016752 9.99222 1.62814e-05 -0.00155126 9.99297 1.49521e-05 -0.00143309 9.99365 1.37e-05
-0.0013221 9.99426 1.25244e-05 -0.00121951 9.99482 1.14253e-05 -0.00112636 9.99532 1.0403e-05 -0.00104364
9.99577 9.45837e-06 -0.000972293 9.99619 8.5928e-06 -0.000913289 9.99656 7.80845e-06 -0.000867601 9.99691
7.10849e-06 -0.00083615 9.99724 6.49726e-06 -0.000819627 9.99754 5.98025e-06 -0.000818139 9.99782 5.56329e-06
-0.000830576 9.9981 5.25135e-06 -0.000853565 9.99839 5.05233e-06 -0.000878932 10 0 0
10.0014 -4.51404e-05 -0.0294582 10.0044 -8.35613e-05 -0.0553843 10.0089 -0.000115895 -0.0784026 10.015
-0.0001427 -0.099055 10.0229 -0.000164482 -0.117697 10.033 -0.000181687 -0.134435 10.0456 -0.000194689
-0.149083 10.0608 -0.000203818 -0.161174 10.0784 -0.000209373 -0.170042 10.098 -0.000211631 -0.174957
10.1188 -0.000210855 -0.175294 10.14 -0.000207309 -0.170681 10.1605 -0.000201256 -0.161098 10.1792
-0.000192953 -0.146898 10.1954 -0.000182655 -0.128756 10.2084 -0.000170612 -0.107503 10.218 -0.000156947
-0.083982 10.2241 -0.000141955 -0.0589084 10.2267 -0.000126142 -0.032841 10.2258 -0.000111685 -0.00939909
9.99817 6.04108e-06 -0.0011262 9.99817 6.04108e-06 -0.0011262 10.2257 -0.000109729 -0.00622682 10.2213
-9.28624e-05 0.020512 10.2133 -7.59186e-05 0.0468852 10.2017 -5.91271e-05 0.0723811 10.1864 -4.26717e-05
0.0963938 10.1675 -2.68477e-05 0.118096 10.1454 -1.18475e-05 0.136521 10.1206 2.15214e-06 0.150721
10.0941 1.49992e-05 0.15994 10.067 2.65773e-05 0.163769 10.0406 3.68046e-05 0.16224 10.016
4.56333e-05 0.155837 9.99414 5.30875e-05 0.14542 9.97562 5.92293e-05 0.132088 9.9607 6.41262e-05
0.117017 9.94937 6.78753e-05 0.101316 9.94134 7.05906e-05 0.0859008 9.93616 7.23897e-05 0.0714429
9.93334 7.3386e-05 0.0583593 9.93239 7.3651e-05 0.0468516 9.93289 7.32806e-05 0.0369585 9.93445
7.24049e-05 0.0286104 9.93678 7.11152e-05 0.0216743 9.93964 6.9536e-05 0.0159878 9.94284 6.76691e-05
0.0113815 9.94623 6.56817e-05 0.00769259 9.9497 6.32141e-05 0.00477218 9.95317 6.06879e-05 0.00248844
9.95658 5.74179e-05 0.000727112 9.95988 5.49019e-05 -0.000609091 9.96305 5.23259e-05 -0.00160199 9.96605
4.97692e-05 -0.00231968 9.96889 4.71693e-05 -0.00281842 9.97155 4.45878e-05 -0.0031442 9.97403 4.20366e-05
-0.00333494 9.97633 3.95507e-05 -0.00342102 9.97846 3.71318e-05 -0.00342702 9.98042 3.47878e-05 -0.0033729
9.98222 3.2515e-05 -0.00327452 9.98387 3.03496e-05 -0.00314456 9.98538 2.82657e-05 -0.00299315 9.98676
2.6272e-05 -0.00282824 9.98801 2.43697e-05 -0.00265615 9.98915 2.25574e-05 -0.00248184 9.99018 2.08353e-05
-0.00230921 9.99112 1.92028e-05 -0.00214136 9.99197 1.76594e-05 -0.00198074 9.99273 1.62046e-05 -0.0018293
9.99343 1.48382e-05 -0.00168867 9.99405 1.35601e-05 -0.00156023 9.99462 1.23708e-05 -0.00144521 9.99514
1.12712e-05 -0.00134471 9.9956 1.02631e-05 -0.0012598 9.99603 9.34883e-06 -0.00119141 9.99642 8.53218e-06
-0.00114031 9.99678 7.81822e-06 -0.00110688 9.99711 7.21338e-06 -0.00109076 9.99741 6.7245e-06 -0.00109033
9.99771 6.35766e-06 -0.00110192 9.99801 6.12283e-06 -0.00111816 10 0 0 10.001
-4.93698e-05 -0.0379143 10.003 -9.15654e-05 -0.0706338 10.0059 -0.000127194 -0.0994986 10.01 -0.000156799
-0.12552 10.0157 -0.000180892 -0.149305 10.0236 -0.000199944 -0.171045 10.0341 -0.000214354 -0.190464
10.0477 -0.000224462 -0.206849 10.0643 -0.000230594 -0.219174 10.0835 -0.000233052 -0.226312 10.1044
-0.00023212 -0.227286 10.1259 -0.000228092 -0.22152 10.1466 -0.000221269 -0.208983 10.1652 -0.000211952
-0.190225 10.181 -0.000200433 -0.166275 10.1933 -0.000187019 -0.138367 10.2019 -0.000171798 -0.107701
10.2069 -0.000154956 -0.0752626 10.2085 -0.000136968 -0.0417685 10.2071 -0.000120383 -0.0117764 9.99783
7.0948e-06 -0.00137043 9.99783 7.0948e-06 -0.00137043 10.2069 -0.00011814 -0.00771773 10.2021 -9.89256e-05
0.0264936 10.194 -7.99893e-05 0.060429 10.1823 -6.14205e-05 0.0935188 10.1668 -4.31924e-05 0.124953
10.1474 -2.56159e-05 0.153597 10.1244 -8.94809e-06 0.178076 10.0982 6.58446e-06 0.196986 10.0701
2.07931e-05 0.209188 10.0414 3.35398e-05 0.214047 10.0136 4.47285e-05 0.211591 9.98814 5.42978e-05
0.202526 9.96612 6.22965e-05 0.188101 9.94819 6.88157e-05 0.169898 9.93458 7.39431e-05 0.149585
9.92509 7.78165e-05 0.128696 9.91923 8.05783e-05 0.108456 9.91636 8.23662e-05 0.0897091 9.91581
8.33112e-05 0.0729418 9.91699 8.34347e-05 0.058343 9.91941 8.29027e-05 0.0458953 9.92267 8.1941e-05
0.0354564 9.92647 8.05421e-05 0.0268194 9.9306 7.8933e-05 0.0197562 9.93488 7.65555e-05 0.0140409
9.9392 7.40379e-05 0.00946403 9.94346 7.03652e-05 0.00583777 9.94762 6.77455e-05 0.00299787 9.95162
6.49759e-05 0.000803232 9.95544 6.21957e-05 -0.000865967 9.95906 5.92854e-05 -0.00211004 9.96247 5.63345e-05
-0.00301239 9.96565 5.33902e-05 -0.00364213 9.96862 5.0485e-05 -0.00405578 9.97138 4.76317e-05 -0.00429979
9.97392 4.4847e-05 -0.00441182 9.97627 4.21379e-05 -0.00442246 9.97844 3.95109e-05 -0.00435647 9.98042
3.69631e-05 -0.00423375 9.98223 3.45338e-05 -0.00407029 9.98389 3.21926e-05 -0.00387883 9.9854 2.99506e-05
-0.0036695 9.98677 2.78092e-05 -0.00345034 9.98802 2.5768e-05 -0.00322771 9.98916 2.38273e-05 -0.00300664
9.99018 2.19865e-05 -0.00279109 9.99111 2.02451e-05 -0.00258421 9.99196 1.86029e-05 -0.00238851 9.99272
1.70595e-05 -0.00220604 9.9934 1.56152e-05 -0.00203851 9.99403 1.42705e-05 -0.00188735 9.99459 1.30265e-05
-0.00175383 9.9951 1.18852e-05 -0.00163904 9.99556 1.08495e-05 -0.00154389 9.99598 9.92359e-06 -0.001469
9.99636 9.11361e-06 -0.00141449 9.99672 8.42698e-06 -0.00137975 9.99704 7.87167e-06 -0.00136295 9.99735
7.45477e-06 -0.00136059 9.99767 7.18775e-06 -0.00136644 10 0 0 10.0003 -5.34483e-05
-0.0463832 10.0006 -9.90974e-05 -0.0858705 10.0009 -0.000137633 -0.120622 10.0017 -0.000169678 -0.152219
10.0037 -0.000195752 -0.181581 10.0078 -0.000216362 -0.209007 10.0148 -0.000231929 -0.234113 10.0255
-0.000242799 -0.25585 10.0399 -0.000249327 -0.272678 10.0578 -0.000251845 -0.28288 10.0779 -0.000250647
-0.284958 10.099 -0.00024605 -0.278018 10.1192 -0.000238384 -0.262025 10.137 -0.00022798 -0.237842
10.1514 -0.00021515 -0.207046 10.1618 -0.00020021 -0.171462 10.1684 -0.000183344 -0.132785 10.1715
-0.000164778 -0.0923302 10.1716 -0.000144911 -0.050946 10.1694 -0.000126606 -0.0140799 9.99753 8.13895e-06
-0.00162021 9.99753 8.13895e-06 -0.00162021 10.1691 -0.00012413 -0.00909099 10.1641 -0.000103004 0.0329785
10.1564 -8.21341e-05 0.0749787 10.1455 -6.16721e-05 0.116378 10.1308 -4.16795e-05 0.156198 10.1119
-2.24374e-05 0.19292 10.0887 -4.22472e-06 0.224591 10.0619 1.26996e-05 0.249145 10.0327 2.81101e-05
0.264859 10.0029 4.18471e-05 0.270758 9.9743 5.37963e-05 0.266863 9.94879 6.3881e-05 0.254198
9.92763 7.21767e-05 0.23457 9.91153 7.88239e-05 0.210236 9.90057 8.39515e-05 0.183529 9.89431
8.77645e-05 0.156524 9.89194 9.04311e-05 0.130799 9.89255 9.21057e-05 0.107364 9.89528 9.29133e-05