# vtk DataFile Version 2.0
sampleSurface
ASCII
DATASET POLYDATA
POINTS 29975 float
-1.9 1.23597e-23 -2 -2 7.70685e-24 -2 -2 8.56447e-18 -1.90008 -1.90002 -2.06795e-25
-1.90008 -1.8 2.64257e-23 -2 -1.80002 -2.06795e-25 -1.90008 -1.7 5.8376e-23 -2
-1.70002 0 -1.90008 -1.6 1.25553e-22 -2 -1.60003 0 -1.90009 -1.5
2.59613e-22 -2 -1.50003 0 -1.90009 -1.4 5.1359e-22 -2 -1.40003 0
-1.90009 -1.3 9.68249e-22 -2 -1.30003 -4.1359e-25 -1.90009 -1.2 1.7325e-21 -2
-1.20003 0 -1.90009 -1.1 2.92959e-21 -2 -1.10003 0 -1.90009 -1
4.66074e-21 -2 -1.00003 0 -1.90009 -0.9 6.94544e-21 -2 -0.900028 0
-1.90009 -0.8 9.6544e-21 -2 -0.800028 4.1359e-25 -1.9001 -0.7 1.24691e-20 -2
-0.700023 0 -1.9001 -0.6 1.49031e-20 -2 -0.600006 0 -1.9001 -0.5
1.63724e-20 -2 -0.500001 0 -1.9001 -0.4 1.63776e-20 -2 -0.4 0
-1.9001 -0.3 1.4601e-20 -2 -0.3 0 -1.9001 -0.2 1.10266e-20 -2
-0.2 0 -1.9001 -0.1 6.00259e-21 -2 -0.1 1.65436e-24 -1.9001 -2.01598e-21
0 -2 -2.04443e-21 0 -2 -0.0118749 2.06795e-25 -1.9001 0.00389139 -2.35099e-38
-2 1.42248e-10 0 -1.9001 0.1 0 -2 0.1 1.65436e-24 -1.9001
0.2 0 -2 0.2 0 -1.9001 0.3 -1.50463e-36 -2 0.3
0 -1.9001 0.4 0 -2 0.4 0 -1.9001 0.5 0
-2 0.500001 0 -1.9001 0.6 0 -2 0.600004 0 -1.9001
0.7 0 -2 0.700005 0 -1.9001 0.8 0 -2 0.800005
-1.65436e-24 -1.9001 0.9 0 -2 0.900005 0 -1.9001 1 0
-2 1.00001 0 -1.9001 1.1 0 -2 1.10001 0 -1.9001
1.2 0 -2 1.20001 -8.27181e-25 -1.90009 1.3 0 -2 1.30001
0 -1.90009 1.4 0 -2 1.40002 0 -1.90009 1.5 0
-2 1.50002 0 -1.90009 1.6 0 -2 1.60003 0 -1.90008
1.7 0 -2 1.70004 0 -1.90008 1.80004 0 -2 1.80006
-8.27181e-25 -1.9001 1.90009 0 -2 1.9001 0 -1.90015 2.00012 -1.65436e-24
-2 2.00013 1.65436e-24 -1.90019 2.10015 1.65436e-24 -2 2.10016 1.65436e-24 -1.90024
2.20018 -1.65436e-24 -2 2.20019 0 -1.90028 2.30021 3.30872e-24 -2 2.30022
3.30872e-24 -1.90031 2.40023 -3.30872e-24 -2 2.40024 0 -1.90035 2.50025 0
-2 2.50026 0 -1.90037 2.60027 3.30872e-24 -2 2.60027 -3.30872e-24 -1.9004
2.70028 -3.30872e-24 -2 2.70029 -3.30872e-24 -1.90042 2.8003 0 -2 2.80031
3.30872e-24 -1.90044 2.90031 0 -2 2.90032 -3.30872e-24 -1.90046 3.00032 3.30872e-24
-2 3.00033 0 -1.90048 3.10034 3.30872e-24 -2 3.10034 3.30872e-24 -1.9005
3.20035 0 -2 3.20035 0 -1.90051 3.30036 0 -2 3.30036
0 -1.90052 3.40036 3.30872e-24 -2 3.40037 0 -1.90054 3.50037 0
-2 3.50038 4.23516e-22 -1.90054 3.60038 0 -2 3.60039 0 -1.90055
3.70039 0 -2 3.70041 8.47033e-22 -1.90055 3.8004 0 -2 3.80048
3.38813e-21 -1.90051 3.9004 -4.23516e-22 -2 3.90049 -6.77626e-21 -1.90048 4.0004 0
-2 4.00051 0 -1.90041 4.10043 -3.38813e-21 -2 4.10058 0 -1.90022
4.20043 -6.77626e-21 -2 4.20058 1.35525e-20 -1.90011 4.30041 6.77626e-21 -2 4.30055
-1.35525e-20 -1.90008 4.40039 6.77626e-21 -2 4.40052 0 -1.90007 4.50041 6.77626e-21
-2 4.50049 0 -1.90006 4.60045 0 -2 4.60046 0 -1.9
4.70042 -1.35525e-20 -2 4.70043 1.35525e-20 -1.89999 4.80039 0 -2 4.80039
1.35525e-20 -1.89999 4.90036 0 -2 4.90036 0 -1.89999 5.00033 -1.35525e-20
-2 5.00033 -1.35525e-20 -1.89999 5.10029 0 -2 5.1003 0 -1.89999
5.20026 6.77626e-21 -2 5.20026 0 -1.89999 5.30023 6.77626e-21 -2 5.30023
0 -1.89999 5.4002 0 -2 5.4002 0 -1.89999 5.50016 0
-2 5.50017 -6.77626e-21 -1.89999 5.60013 0 -2 5.60013 6.77626e-21 -1.9
5.7001 0 -2 5.7001 3.38813e-21 -1.9 5.80007 0 -2 5.80007
0 -1.9 5.90003 -8.47033e-22 -2 5.90003 0 -1.9 6 -0
-1.9 6 0 -2 -2 4.16864e-18 -1.80015 -1.90005 -4.1359e-25 -1.80016
-1.80005 0 -1.80016 -1.70005 -4.1359e-25 -1.80017 -1.60005 8.27181e-25 -1.80017 -1.50005
-4.1359e-25 -1.80017 -1.40005 8.27181e-25 -1.80018 -1.30005 0 -1.80018 -1.20005 -8.27181e-25
-1.80018 -1.10006 -8.27181e-25 -1.80019 -1.00006 0 -1.80019 -0.900056 0 -1.80019
-0.800055 8.27181e-25 -1.80019 -0.700046 0 -1.80019 -0.600011 3.30872e-24 -1.8002 -0.500001
3.30872e-24 -1.8002 -0.4 0 -1.8002 -0.3 0 -1.8002 -0.2 0
-1.8002 -0.1 0 -1.8002 -0.0119173 0 -1.8002 2.86845e-10 0 -1.8002
0.1 -3.30872e-24 -1.8002 0.2 0 -1.8002 0.3 3.30872e-24 -1.8002 0.4
3.30872e-24 -1.8002 0.500002 -3.30872e-24 -1.8002 0.600008 0 -1.8002 0.70001 0
-1.8002 0.80001 -3.30872e-24 -1.8002 0.90001 0 -1.8002 1.00001 0 -1.80019
1.10001 -1.65436e-24 -1.80019 1.20003 0 -1.80019 1.30003 8.27181e-25 -1.80018 1.40003
-8.27181e-25 -1.80018 1.50004 0 -1.80017 1.60008 -8.27181e-25 -1.80016 1.70009 -8.27181e-25
-1.80014 1.80011 0 -1.80015 1.90013 0 -1.80019 2.00015 1.65436e-24 -1.80022
2.10018 -3.30872e-24 -1.80026 2.2002 0 -1.8003 2.30023 0 -1.80033 2.40025
0 -1.80036 2.50027 -3.30872e-24 -1.80039 2.60028 0 -1.80041 2.7003 -3.30872e-24
-1.80044 2.80031 -3.30872e-24 -1.80046 2.90033 0 -1.80047 3.00034 -1.32349e-23 -1.80049
3.10035 0 -1.80051 3.20036 0 -1.80051 3.30038 0 -1.80053 3.4004
8.47033e-22 -1.80053 3.50046 -3.38813e-21 -1.80049 3.60049 0 -1.80048 3.70055 -6.77626e-21
-1.80043 3.80067 0 -1.80019 3.90068 0 -1.80011 4.00065 0 -1.80008
4.10062 0 -1.80002 4.20059 0 -1.79999 4.30056 -1.35525e-20 -1.79999 4.40053
0 -1.79999 4.50049 1.35525e-20 -1.79999 4.60046 -1.35525e-20 -1.79998 4.70043 0
-1.79998 4.8004 -1.35525e-20 -1.79999 4.90036 0 -1.79999 5.00033 0 -1.79999
5.1003 0 -1.79999 5.20027 6.77626e-21 -1.79999 5.30023 0 -1.79999 5.4002
-6.77626e-21 -1.79999 5.50017 0 -1.79999 5.60013 -3.38813e-21 -1.8 5.7001 0
-1.8 5.80007 -1.69407e-21 -1.8 5.90003 8.47033e-22 -1.8 6 -0 -1.8
-2 -1.05256e-18 -1.70023 -1.90007 0 -1.70024 -1.80007 0 -1.70024 -1.70007
0 -1.70025 -1.60008 -8.27181e-25 -1.70025 -1.50008 8.27181e-25 -1.70026 -1.40008 0
-1.70026 -1.30008 -8.27181e-25 -1.70027 -1.20008 8.27181e-25 -1.70027 -1.10008 0 -1.70028
-1.00008 -8.27181e-25 -1.70028 -0.900084 0 -1.70028 -0.800083 0 -1.70029 -0.700069
0 -1.70029 -0.600017 0 -1.7003 -0.500002 6.61744e-24 -1.7003 -0.4 0
-1.7003 -0.3 0 -1.7003 -0.2 -6.61744e-24 -1.7003 -0.1 -3.30872e-24 -1.7003
-0.0119194 0 -1.7003 4.30425e-10 0 -1.7003 0.1 0 -1.7003 0.2
0 -1.7003 0.3 6.61744e-24 -1.7003 0.4 6.61744e-24 -1.7003 0.500003 0
-1.7003 0.600013 3.30872e-24 -1.7003 0.700015 3.30872e-24 -1.7003 0.800016 0 -1.7003
0.900015 0 -1.70029 1.00002 3.30872e-24 -1.70029 1.10003 -3.30872e-24 -1.70029 1.20004
0 -1.70028 1.30005 0 -1.70027 1.40005 0 -1.70027 1.50008 0
-1.70025 1.60013 1.65436e-24 -1.70023 1.70014 0 -1.70021 1.80015 1.65436e-24 -1.70022
1.90016 0 -1.70024 2.00018 0 -1.70026 2.1002 0 -1.7003 2.20022
3.30872e-24 -1.70033 2.30024 -3.30872e-24 -1.70036 2.40026 0 -1.70038 2.50028 0
-1.70041 2.6003 0 -1.70043 2.70031 0 -1.70045 2.80032 1.32349e-23 -1.70047
2.90034 5.29396e-23 -1.70049 3.00035 4.23516e-22 -1.7005 3.10038 0 -1.7005 3.20044
-3.38813e-21 -1.70047 3.30047 0 -1.70046 3.40053 1.35525e-20 -1.70041 3.50065 1.35525e-20
-1.70019 3.60068 0 -1.70011 3.70069 0 -1.70008 3.8007 0 -1.70001
3.90069 0 -1.69999 4.00066 0 -1.69999 4.10062 0 -1.69998 4.20059
0 -1.69998 4.30056 0 -1.69998 4.40053 0 -1.69998 4.5005 1.35525e-20
-1.69998 4.60046 0 -1.69998 4.70043 0 -1.69998 4.8004 0 -1.69999
4.90037 0 -1.69999 5.00033 1.35525e-20 -1.69999 5.1003 0 -1.69999 5.20027
0 -1.69999 5.30023 -6.77626e-21 -1.69999 5.4002 0 -1.69999 5.50017 0
-1.69999 5.60013 0 -1.7 5.7001 3.38813e-21 -1.7 5.80007 0 -1.7
5.90003 0 -1.7 6 -0 -1.7 -2 1.18217e-17 -1.6003 -1.90009
8.27181e-25 -1.60031 -1.80009 0 -1.60032 -1.7001 0 -1.60033 -1.6001 0
-1.60034 -1.5001 -8.27181e-25 -1.60034 -1.4001 0 -1.60035 -1.30011 0 -1.60036
-1.20011 0 -1.60036 -1.10011 1.65436e-24 -1.60037 -1.00011 1.65436e-24 -1.60037 -0.900112
0 -1.60038 -0.800111 1.65436e-24 -1.60038 -0.700092 0 -1.60039 -0.600022 0
-1.6004 -0.500002 0 -1.6004 -0.4 0 -1.6004 -0.3 0 -1.6004
-0.2 -6.61744e-24 -1.6004 -0.1 0 -1.6004 -0.0119194 0 -1.6004 6
0 -1.6 6 0 -1.6 6 0 -1.68973 5.73901e-10 0
-1.6004 0.1 0 -1.6004 0.2 0 -1.6004 0.3 -6.61744e-24 -1.6004
0.4 -6.61744e-24 -1.6004 0.500004 0 -1.6004 0.600017 0 -1.6004 0.70002
0 -1.6004 0.800021 -6.61744e-24 -1.60039 0.900021 0 -1.60039 1.00003 -3.30872e-24
-1.60039 1.10005 3.30872e-24 -1.60038 1.20006 0 -1.60037 1.30007 0 -1.60036
1.40009 0 -1.60035 1.50016 -1.65436e-24 -1.60032 1.60019 -3.30872e-24 -1.60029 1.70019
0 -1.60028 1.80019 -3.30872e-24 -1.60028 1.9002 0 -1.60029 2.00021 -3.30872e-24
-1.60031 2.10023 0 -1.60034 2.20025 0 -1.60036 2.30026 0 -1.60039
2.40028 -3.30872e-24 -1.60041 2.5003 3.30872e-24 -1.60043 2.60031 0 -1.60045 2.70032
5.29396e-23 -1.60047 2.80034 0 -1.60048 2.90037 0 -1.60049 3.00044 -3.38813e-21
-1.60045 3.10051 0 -1.60039 3.20063 -1.35525e-20 -1.60018 3.30065 -1.35525e-20 -1.6001
3.40067 2.71051e-20 -1.60008 3.50068 0 -1.60001 3.60069 0 -1.59999 3.7007
0 -1.59998 3.80071 0 -1.59998 3.90069 0 -1.59997 4.00066 -2.71051e-20
-1.59998 4.10063 0 -1.59998 4.2006 0 -1.59998 4.30057 0 -1.59998
4.40053 0 -1.59998 4.5005 -2.71051e-20 -1.59998 4.60047 0 -1.59998 4.70043
0 -1.59998 4.8004 0 -1.59999 4.90037 1.35525e-20 -1.59999 5.00034 0
-1.59999 5.1003 0 -1.59999 5.20027 6.77626e-21 -1.59999 5.30024 0 -1.59999
5.4002 -6.77626e-21 -1.59999 5.50017 0 -1.59999 5.60014 3.38813e-21 -1.6 5.7001
3.38813e-21 -1.6 5.80007 0 -1.6 5.90003 0 -1.6 -2 1.01824e-18
-1.50036 -1.90012 -1.65436e-24 -1.50038 -1.80012 -1.65436e-24 -1.50039 -1.70012 -1.65436e-24 -1.50041
-1.60012 0 -1.50042 -1.50013 1.65436e-24 -1.50043 -1.40013 0 -1.50044 -1.30013
-1.65436e-24 -1.50045 -1.20013 -1.65436e-24 -1.50045 -1.10014 0 -1.50046 -1.00014 0
-1.50047 -0.90014 1.65436e-24 -1.50047 -0.800139 0 -1.50048 -0.700115 0 -1.50048
-0.600028 0 -1.5005 -0.500003 0 -1.5005 -0.4 -6.61744e-24 -1.5005 -0.3
6.61744e-24 -1.5005 -0.2 6.61744e-24 -1.5005 -0.1 6.61744e-24 -1.5005 -0.0119194 8.27181e-25
-1.5005 6 0 -1.5 6 -0 -1.5 7.17376e-10 0 -1.5005
0.1 0 -1.5005 0.2 6.61744e-24 -1.5005 0.3 0 -1.5005 0.4
0 -1.5005 0.500005 -6.61744e-24 -1.5005 0.600021 -6.61744e-24 -1.5005 0.700026 -6.61744e-24
-1.5005 0.800026 0 -1.50049 0.900029 0 -1.50049 1.00005 0 -1.50048
1.10007 0 -1.50047 1.20008 0 -1.50046 1.3001 -1.65436e-24 -1.50045 1.40014
1.65436e-24 -1.50043 1.50022 0 -1.50038 1.60024 3.30872e-24 -1.50036 1.70024 0
-1.50035 1.80024 0 -1.50035 1.90024 0 -1.50035 2.00025 0 -1.50036
2.10026 0 -1.50038 2.20027 3.30872e-24 -1.5004 2.30029 0 -1.50042 2.4003
0 -1.50044 2.50031 5.29396e-23 -1.50046 2.60033 0 -1.50047 2.70036 0
[...]
POINT_DATA 29975
FIELD attributes 1
U 3 29975 float
10 0 0 10 0 0 10 0 0 9.99971 -1.37662e-05
-0.000453268 10 0 0 9.99977 -2.36172e-05 -0.00131567 10 0 0
10.0006 -3.11192e-05 -0.00219613 10 0 0 10.0021 -3.69762e-05 -0.00297221 10
0 0 10.0044 -4.15483e-05 -0.00361847 10 0 0 10.0074 -4.50476e-05
-0.00417597 10 0 0 10.0111 -4.75939e-05 -0.0046884 10 0 0
10.0153 -4.92807e-05 -0.00511373 10 0 0 10.02 -5.01755e-05 -0.00542543 10
0 0 10.0252 -5.03315e-05 -0.00560758 10 0 0 10.0305 -4.97963e-05
-0.00564167 10 0 0 10.0359 -4.86158e-05 -0.00551475 10 0 0
10.0411 -4.68377e-05 -0.00522402 10 0 0 10.046 -4.45132e-05 -0.00477813 10
0 0 10.0503 -4.16991e-05 -0.00419596 10 0 0 10.054 -3.84552e-05
-0.00350225 10 0 0 10.0569 -3.48452e-05 -0.00272281 10 0 0
10.059 -3.09345e-05 -0.00187995 10 0 0 10.0601 -2.67955e-05 -0.000996133 10
-4.49907e-18 -1.88427e-17 10 0 0 10.0603 -2.30103e-05 -0.000201333 10 0
0 10.0603 -2.25003e-05 -9.42339e-05 10 0 0 10.0595 -1.81334e-05 0.000809111
10 0 0 10.0577 -1.37971e-05 0.00169442 10 0 0 10.0551
-9.57068e-06 0.00253823 10 0 0 10.0515 -5.5125e-06 0.00331839 10 0
0 10.0472 -1.67961e-06 0.00400855 10 0 0 10.0422 1.87496e-06 0.00457862
10 0 0 10.0366 5.10479e-06 0.00499993 10 0 0 10.0308
7.97323e-06 0.00525091 10 0 0 10.0248 1.04555e-05 0.00532152 10 0
0 10.019 1.25397e-05 0.00521582 10 0 0 10.0135 1.42282e-05 0.00495197
10 0 0 10.0085 1.55367e-05 0.00455995 10 0 0 10.004
1.64898e-05 0.00407729 10 0 0 10.0003 1.71049e-05 0.00354381 10 0
0 9.99731 1.74238e-05 0.00299686 10 0 0 9.99498 1.75043e-05 0.00246773
10 0 0 9.99329 1.7381e-05 0.00197936 10 0 0 9.99215
1.70853e-05 0.00154575 10 0 0 9.99148 1.66522e-05 0.00117382 10 0
0 9.99118 1.61153e-05 0.000864544 10 0 0 9.99117 1.55021e-05 0.000613963
10 0 0 9.99137 1.48357e-05 0.000415286 10 0 0 9.99172
1.41349e-05 0.000260939 10 0 0 9.99217 1.34146e-05 0.000143616 10 0
0 9.99268 1.26874e-05 5.68138e-05 10 0 0 9.99322 1.19624e-05 -5.31798e-06
10 0 0 9.99377 1.12477e-05 -4.86783e-05 10 0 0 9.99431
1.05491e-05 -7.83452e-05 10 0 0 9.99482 9.87065e-06 -9.7622e-05 10 0
0 9.99531 9.21612e-06 -0.000108901 10 0 0 9.99577 8.58614e-06 -0.000114226
10 0 0 9.99619 7.98317e-06 -0.000115281 10 0 0 9.99658
7.40845e-06 -0.000113337 10 0 0 9.99693 6.86484e-06 -0.00010929 10 0
0 9.99726 6.35055e-06 -0.000103922 10 0 0 9.99755 5.86458e-06 -9.77637e-05
10 0 0 9.99781 5.40711e-06 -9.11678e-05 10 0 0 9.99805
4.97359e-06 -8.44621e-05 10 0 0 9.99826 4.56166e-06 -7.77988e-05 10 0
0 9.99845 4.15169e-06 -7.13723e-05 10 0 0 9.99861 3.8197e-06 -6.52596e-05
10 0 0 9.99876 3.52117e-06 -5.93775e-05 10 0 0 9.9989
3.18703e-06 -5.38088e-05 10 0 0 9.99902 2.88653e-06 -4.86353e-05 10 0
0 9.99913 2.61283e-06 -4.38737e-05 10 0 0 9.99922 2.36126e-06 -3.9519e-05
10 0 0 9.9993 2.12664e-06 -3.55602e-05 10 0 0 9.99938
1.90519e-06 -3.2024e-05 10 0 0 9.99945 1.70233e-06 -2.89143e-05 10 0
0 9.99951 1.51556e-06 -2.62428e-05 10 0 0 9.99956 1.34389e-06 -2.40382e-05
10 0 0 9.99961 1.18726e-06 -2.235e-05 10 0 0 9.99965
1.04575e-06 -2.12605e-05 10 0 0 9.99969 9.19682e-07 -2.09053e-05 10 0
0 9.99973 8.09822e-07 -2.1469e-05 10 0 0 9.99977 7.17325e-07 -2.32372e-05
10 0 0 9.99981 6.43987e-07 -2.69366e-05 10 0 0 9.99986
5.92865e-07 -3.30213e-05 10 0 0 9.99992 5.64392e-07 -4.3256e-05 9.99996 5.55476e-07
-4.9874e-05 10 1.37942e-07 -7.30811e-06 10 0 0 10.0001 -2.32852e-05 -0.00212318
10.0008 -4.12565e-05 -0.00482271 10.0025 -5.53892e-05 -0.00751506 10.0054 -6.65919e-05 -0.00998034 10.0095
-7.54075e-05 -0.0121879 10.0147 -8.21852e-05 -0.0141348 10.0211 -8.71575e-05 -0.015826 10.0285 -9.04941e-05
-0.0172242 10.0368 -9.23246e-05 -0.0182653 10.0457 -9.27544e-05 -0.018876 10.055 -9.18772e-05 -0.0189907
10.0644 -8.97829e-05 -0.0185667 10.0736 -8.65632e-05 -0.0175949 10.0821 -8.23165e-05 -0.0161037 10.0897
-7.71516e-05 -0.0141549 10.0962 -7.11838e-05 -0.0118297 10.1012 -6.45349e-05 -0.00921467 10.1048 -5.73281e-05
-0.0063856 10.1068 -4.96986e-05 -0.00341406 10.107 -4.27272e-05 -0.000735842 10.1071 -4.1784e-05 -0.000373486
10.1057 -3.37318e-05 0.00267282 10.1026 -2.57199e-05 0.00565288 10.0978 -1.78962e-05 0.00849245 10.0916
-1.03701e-05 0.0111206 10.084 -3.2498e-06 0.0134474 10.0751 3.36366e-06 0.0153729 10.0654 9.38245e-06
0.0168036 10.055 1.47379e-05 0.0176694 10.0445 1.93835e-05 0.0179376 10.0342 2.32965e-05 0.0176212
10.0244 2.64792e-05 0.0167792 10.0155 2.8958e-05 0.0155088 10.0076 3.07774e-05 0.013932 10.001
3.1988e-05 0.0121782 9.99559 3.26594e-05 0.0103696 9.99139 3.2875e-05 0.00860944 9.98831 3.27057e-05
0.00697402 9.9862 3.22164e-05 0.00551181 9.9849 3.14697e-05 0.00424702 9.98427 3.05231e-05 0.0031843
9.98417 2.94268e-05 0.00231322 9.98445 2.82228e-05 0.00161421 9.98501 2.6946e-05 0.00106421 9.98576
2.5625e-05 0.000640028 9.98663 2.4283e-05 0.000319901 9.98756 2.29382e-05 8.4195e-05 9.98851 2.16055e-05
-8.54919e-05 9.98946 2.02965e-05 -0.000204904 9.99038 1.90216e-05 -0.000285543 9.99125 1.77879e-05 -0.000336468
9.99208 1.65982e-05 -0.000365034 9.99285 1.54547e-05 -0.000377135 9.99355 1.43645e-05 -0.000377325 9.9942
1.33307e-05 -0.000369031 9.9948 1.23365e-05 -0.00035502 9.99534 1.14058e-05 -0.000337196 9.99583 1.05145e-05
-0.000317154 9.99626 9.6482e-06 -0.000296091 9.99666 8.86282e-06 -0.000274443 9.99702 8.11262e-06 -0.000252946
9.99734 7.45387e-06 -0.000232051 9.99762 6.84157e-06 -0.000211922 9.99788 6.21979e-06 -0.000192825 9.99811
5.64674e-06 -0.000174949 9.99831 5.11628e-06 -0.000158379 9.99849 4.62554e-06 -0.00014315 9.99865 4.17004e-06
-0.000129285 9.99879 3.74483e-06 -0.000116831 9.99892 3.35249e-06 -0.000105817 9.99903 2.99114e-06 -9.62895e-05
9.99914 2.65974e-06 -8.83301e-05 9.99923 2.35788e-06 -8.20669e-05 9.99932 2.08555e-06 -7.77e-05 9.99939
1.84325e-06 -7.55337e-05 9.99947 1.63223e-06 -7.60102e-05 9.99954 1.45448e-06 -7.97329e-05 9.99962 1.31268e-06
-8.74842e-05 9.9997 1.20973e-06 -9.99044e-05 9.99979 1.1478e-06 -0.000115748 9.99984 1.12733e-06 -0.000124163
10 0 0 10.0005 -3.0487e-05 -0.0050496 10.0019 -5.50402e-05 -0.0104786 10.0045
-7.48414e-05 -0.0157285 10.0085 -9.07647e-05 -0.0205747 10.0139 -0.000103408 -0.0249788 10.0208 -0.000113193
-0.0289332 10.0291 -0.000120424 -0.0324013 10.0388 -0.000125332 -0.0352847 10.0497 -0.000128096 -0.0374416
10.0615 -0.000128866 -0.038716 10.0738 -0.000127775 -0.0389692 10.0863 -0.000124953 -0.0381119 10.0984
-0.000120531 -0.036125 10.1097 -0.000114651 -0.0330677 10.1198 -0.000107469 -0.0290698 10.1283 -9.91517e-05
-0.0243014 10.135 -8.98758e-05 -0.0189442 10.1396 -7.98136e-05 -0.0131536 10.1422 -6.91724e-05 -0.00706869
10.1425 -5.94618e-05 -0.0015723 10.1425 -5.81478e-05 -0.000828508 10.1406 -4.69065e-05 0.00542337 10.1365
-3.5698e-05 0.0115274 10.1302 -2.4747e-05 0.0173505 10.1218 -1.42017e-05 0.0227548 10.1116 -4.21614e-06
0.0275512 10.0998 5.06443e-06 0.0315311 10.0867 1.35134e-05 0.0344999 10.0728 2.10326e-05 0.0363117
10.0587 2.75556e-05 0.0368981 10.0448 3.30499e-05 0.0362847 10.0317 3.75188e-05 0.034592 10.0197
4.10001e-05 0.0320195 10.0092 4.35585e-05 0.0288167 10.0004 4.52745e-05 0.0252486 9.99324 4.62454e-05
0.0215642 9.9877 4.65791e-05 0.0179731 9.98364 4.63759e-05 0.0146307 9.98088 4.57297e-05 0.0116359
9.97919 4.47257e-05 0.00903725 9.97838 4.34403e-05 0.00684378 9.97824 4.19417e-05 0.0050357 9.97863
4.02876e-05 0.0035757 9.97938 3.85257e-05 0.00241881 9.98038 3.66948e-05 0.00151876 9.98154 3.48271e-05
0.000831457 9.98279 3.29482e-05 0.000316873 9.98407 3.10808e-05 -6.03285e-05 9.98535 2.92415e-05 -0.000330098
9.98659 2.7452e-05 -0.000516503 9.98778 2.57146e-05 -0.000638877 9.9889 2.404e-05 -0.000712668 9.98995
2.23944e-05 -0.000750128 9.99092 2.08467e-05 -0.000760731 9.99182 1.93392e-05 -0.000752066 9.99264 1.78457e-05
-0.000730011 9.99339 1.6511e-05 -0.00069839 9.99407 1.5257e-05 -0.000660763 9.99468 1.40629e-05 -0.000619677
9.99524 1.29404e-05 -0.000576747 9.99574 1.18699e-05 -0.000533548 9.99619 1.08838e-05 -0.000491055 9.99659
9.96393e-06 -0.000449921 9.99695 9.08188e-06 -0.000410705 9.99727 8.26049e-06 -0.000373773 9.99756 7.49491e-06
-0.000339345 9.99782 6.78297e-06 -0.000307558 9.99805 6.12172e-06 -0.000278509 9.99825 5.50749e-06 -0.00025229
9.99843 4.9397e-06 -0.000228974 9.9986 4.4167e-06 -0.000208657 9.99874 3.93739e-06 -0.000191479 9.99888
3.50113e-06 -0.000177639 9.999 3.10785e-06 -0.000167419 9.99911 2.75822e-06 -0.000161205 9.99922 2.45383e-06
-0.000159473 9.99932 2.19727e-06 -0.000162744 9.99942 1.99176e-06 -0.000171414 9.99951 1.84049e-06 -0.000185184
9.99962 1.74698e-06 -0.000201115 9.99968 1.71527e-06 -0.000208994 10 0 0 10.0007
-3.63028e-05 -0.00904777 10.0027 -6.62828e-05 -0.0179387 10.006 -9.08872e-05 -0.0263235 10.0107 -0.000110906
-0.0340884 10.0169 -0.000126931 -0.0412288 10.0248 -0.000139416 -0.0477247 10.0344 -0.000148705 -0.0534842
10.0456 -0.00015507 -0.0583206 10.0584 -0.000158725 -0.0619762 10.0723 -0.000159854 -0.064169 10.087
-0.000158624 -0.0646508 10.1018 -0.000155195 -0.0632621 10.1163 -0.000149734 -0.0599693 10.1297 -0.00014242
-0.0548771 10.1417 -0.000133453 -0.0482139 10.1517 -0.000123043 -0.0402777 10.1594 -0.000111412 -0.0313844
10.1648 -9.87868e-05 -0.0217894 10.1677 -8.55046e-05 -0.0117308 10.168 -7.34476e-05 -0.00266316 9.99951
2.30602e-06 -0.0003045 9.99951 2.30602e-06 -0.0003045 9.99966 1.77593e-06 -0.000218801 10.168 -7.18161e-05
-0.00143608 10.1657 -5.77976e-05 0.00889973 10.1607 -4.37378e-05 0.0190105 10.1532 -2.99917e-05 0.0286725
10.1432 -1.67624e-05 0.037676 10.131 -4.2392e-06 0.045697 10.1167 7.39417e-06 0.0523752 10.1009
1.79751e-05 0.0573723 10.0841 2.73771e-05 0.0604325 10.067 3.55153e-05 0.0614332 10.0502 4.23488e-05
0.0604157 10.0344 4.78839e-05 0.0575858 10.0202 5.21727e-05 0.053285 10.0078 5.53058e-05 0.0479384
9.99739 5.73945e-05 0.0419949 9.98911 5.85655e-05 0.0358736 9.98281 5.89513e-05 0.0299227 9.97828
5.86805e-05 0.024397 9.97528 5.78716e-05 0.0194546 9.97353 5.66273e-05 0.0151695 9.97279 5.5038e-05
0.0115511 9.97281 5.31863e-05 0.00856354 9.97342 5.11424e-05 0.00614466 9.97442 4.89634e-05 0.0042205
9.97571 4.66943e-05 0.00271541 9.97716 4.43762e-05 0.00155779 9.97871 4.20397e-05 0.000683028 9.98029
3.9724e-05 3.47539e-05 9.98185 3.74364e-05 -0.000434779 9.98337 3.52194e-05 -0.000764667 9.98482 3.29903e-05
-0.000986612 9.98619 3.08347e-05 -0.00112602 9.98747 2.86221e-05 -0.00120313 9.98867 2.66663e-05 -0.0012333
9.98977 2.48075e-05 -0.00122925 9.99077 2.30229e-05 -0.00120072 9.9917 2.13306e-05 -0.00115486 9.99254
1.97149e-05 -0.00109766 9.9933 1.81811e-05 -0.0010334 9.99399 1.67374e-05 -0.00096531 9.99461 1.5373e-05
-0.000895969 9.99517 1.40961e-05 -0.000827133 9.99567 1.29007e-05 -0.000760075 9.99612 1.17753e-05 -0.000695753
9.99653 1.07234e-05 -0.000634828 9.99689 9.741e-06 -0.00057775 9.99721 8.8258e-06 -0.000524822 9.9975
7.97504e-06 -0.000476256 9.99776 7.18568e-06 -0.000432215 9.99799 6.45578e-06 -0.000392837 9.9982 5.78351e-06
-0.000358273 9.99839 5.16754e-06 -0.000328706 9.99855 4.60707e-06 -0.000304377 9.99871 4.10198e-06 -0.000285596
9.99885 3.65304e-06 -0.000272734 9.99898 3.26215e-06 -0.000266178 9.9991 2.93233e-06 -0.000266199 9.99921
2.66733e-06 -0.000272681 9.99933 2.47088e-06 -0.000284521 9.99944 2.34805e-06 -0.000298029 10 0
0 10.0009 -4.12366e-05 -0.013853 10.0031 -7.57925e-05 -0.0267642 10.0065 -0.000104478 -0.0387207
10.0114 -0.000128014 -0.0498113 10.0178 -0.000146979 -0.0601159 10.0261 -0.000161839 -0.0696197 10.0362
-0.00017296 -0.0781647 10.0484 -0.000180637 -0.08544 10.0624 -0.00018511 -0.0910197 10.0779 -0.000186584
-0.0944393 10.0943 -0.000185244 -0.0952903 10.1111 -0.000181278 -0.0933114 10.1274 -0.000174881 -0.088449
10.1425 -0.000166261 -0.080875 10.1558 -0.000155651 -0.0709613 10.1668 -0.000143285 -0.0591892 10.1753
-0.000129319 -0.046089 10.1811 -0.000114109 -0.0320268 10.1841 -9.85937e-05 -0.0172578 10.1842 -8.49916e-05
-0.0038895 9.99934 2.89227e-06 -0.000407146 9.99934 2.89227e-06 -0.000407146 10.1842 -8.3151e-05 -0.00208044
10.1815 -6.69645e-05 0.0131176 10.1759 -5.00899e-05 0.0279013 10.1675 -3.35843e-05 0.0420911 10.1564
-1.78809e-05 0.0554343 10.1425 -3.06777e-06 0.0673911 10.1263 1.06646e-05 0.0773912 10.1081 2.31251e-05
0.0848945 10.0888 3.41601e-05 0.0894868 10.0692 4.3667e-05 0.0909651 10.05 5.15986e-05 0.0893882
10.032 5.79661e-05 0.0850781 10.016 6.28447e-05 0.0785694 10.0023 6.6358e-05 0.0705232 9.99108
6.86515e-05 0.0616313 9.98234 6.98857e-05 0.0525304 9.97591 7.02235e-05 0.0437394 9.97149 6.9821e-05
0.0356259 9.96875 6.88182e-05 0.0284073 9.96736 6.73274e-05 0.0221753 9.96702 6.54473e-05 0.0169279
9.96745 6.32733e-05 0.0126015 9.96846 6.08846e-05 0.00909858 9.96985 5.83464e-05 0.0063081 9.97149
5.57052e-05 0.00411894 9.97329 5.30234e-05 0.00242753 9.97515 5.03146e-05 0.0011414 9.97702 4.76482e-05
0.000180798 9.97885 4.48936e-05 -0.000521565 9.98062 4.22138e-05 -0.00102106 9.98231 3.9366e-05 -0.00136284
9.98389 3.68796e-05 -0.0015828 9.98538 3.44755e-05 -0.00170991 9.98675 3.21738e-05 -0.00176693 9.98803
2.99386e-05 -0.00177222 9.98919 2.78019e-05 -0.00173988 9.99026 2.57643e-05 -0.00168085 9.99123 2.38263e-05
-0.00160379 9.99212 2.19873e-05 -0.00151516 9.99292 2.02572e-05 -0.00141989 9.99364 1.86242e-05 -0.00132176
9.99429 1.7089e-05 -0.00122351 9.99488 1.56486e-05 -0.00112719 9.99541 1.42971e-05 -0.00103427 9.99588
1.30324e-05 -0.000945818 9.9963 1.18508e-05 -0.000862587 9.99669 1.07492e-05 -0.000785091 9.99702 9.72461e-06
-0.000713694 9.99733 8.77397e-06 -0.00064866 9.9976 7.89481e-06 -0.000590203 9.99784 7.08506e-06 -0.000538521
9.99806 6.34316e-06 -0.000493827 9.99826 5.66815e-06 -0.00045637 9.99844 5.05987e-06 -0.000426429 9.9986
4.51921e-06 -0.000404294 9.99875 4.04836e-06 -0.000390185 9.99889 3.65082e-06 -0.00038409 9.99902 3.33088e-06
-0.00038548 9.99914 3.09297e-06 -0.000392819 9.99927 2.94355e-06 -0.000402423 10 0 0
10.0009 -4.55712e-05 -0.0192084 10.0029 -8.40708e-05 -0.0365423 10.006 -0.000116246 -0.0524101 10.0104
-0.000142783 -0.0671719 10.0163 -0.000164265 -0.0810428 10.0242 -0.000181172 -0.0940379 10.0342 -0.000193888
-0.105925 10.0465 -0.000202719 -0.116223 10.0612 -0.000207916 -0.124269 10.0777 -0.000209691 -0.129333
10.0956 -0.000208242 -0.130771 10.1139 -0.000203769 -0.128172 10.1317 -0.00019649 -0.121458 10.1481
-0.000186639 -0.110904 10.1624 -0.000174482 -0.0970948 10.174 -0.000160285 -0.0807641 10.1826 -0.000144222
-0.0626835 10.1884 -0.000126937 -0.0434261 10.1912 -0.000109446 -0.0233514 10.1911 -9.38901e-05 -0.00523696
9.99918 3.46806e-06 -0.000515442 9.99918 3.46806e-06 -0.000515442 10.1911 -9.17852e-05 -0.00278563 10.1881
-7.33215e-05 0.0178017 10.1822 -5.41726e-05 0.0379449 10.1733 -3.53106e-05 0.0574434 10.1613 -1.73707e-05
0.0758994 10.1462 -4.82401e-07 0.0925558 10.1283 1.51341e-05 0.106569 10.1082 2.92544e-05 0.117113
10.0867 4.16951e-05 0.123542 10.0647 5.23344e-05 0.125528 10.0434 6.11194e-05 0.123151 10.0238
6.80675e-05 0.116895 10.0065 7.32902e-05 0.107561 9.99212 7.69563e-05 0.0961319 9.98074 7.92519e-05
0.0836225 9.97228 8.03817e-05 0.0709477 9.96643 8.05468e-05 0.0588281 9.96277 7.99302e-05 0.0477509
9.96086 7.86899e-05 0.0379829 9.9603 7.69351e-05 0.0296133 9.96073 7.47655e-05 0.0226069 9.96187
7.22967e-05 0.0168535 9.96349 6.96122e-05 0.0122054 9.96543 6.68e-05 0.00850465 9.96754 6.3872e-05
0.00559797 9.96975 6.09335e-05 0.00334604 9.97196 5.7783e-05 0.00162657 9.97414 5.46726e-05 0.000335345
9.97625 5.12246e-05 -0.000615113 9.97827 4.82807e-05 -0.00129657 9.98017 4.53828e-05 -0.00176773 9.98196
4.2575e-05 -0.00207589 9.98362 3.98255e-05 -0.00225911 9.98516 3.71678e-05 -0.00234756 9.98658 3.46069e-05
-0.00236539 9.98788 3.21589e-05 -0.00233135 9.98906 2.98238e-05 -0.00226014 9.99015 2.76031e-05 -0.00216328
9.99113 2.54927e-05 -0.00204957 9.99202 2.3507e-05 -0.0019258 9.99283 2.16302e-05 -0.00179712 9.99356
1.9863e-05 -0.00166738 9.99421 1.82026e-05 -0.00153945 9.9948 1.66446e-05 -0.00141545 9.99533 1.51857e-05
-0.00129691 9.99581 1.38221e-05 -0.00118493 9.99623 1.25503e-05 -0.00108028 9.99662 1.13668e-05 -0.000983489
9.99696 1.02684e-05 -0.000894959 9.99726 9.2524e-06 -0.000814977 9.99754 8.31649e-06 -0.000743789 9.99778
7.4589e-06 -0.000681622 9.998 6.67857e-06 -0.000628706 9.99821 5.97532e-06 -0.000585262 9.99839 5.35022e-06
-0.000551469 9.99855 4.80583e-06 -0.000527378 9.9987 4.34615e-06 -0.000512745 9.99884 3.97608e-06 -0.000506795
9.99897 3.70066e-06 -0.000507867 9.99911 3.52752e-06 -0.000512662 10 0 0 10.0006
-4.94707e-05 -0.0248565 10.002 -9.1411e-05 -0.0468391 10.0042 -0.000126573 -0.0668446 10.0073 -0.000155649
-0.0855662 10.0119 -0.000179245 -0.103404 10.0185 -0.000197875 -0.120434 10.0276 -0.000211944 -0.136341
10.0394 -0.000221761 -0.150417 10.0541 -0.000227576 -0.161662 10.0713 -0.0002296 -0.168957 10.0902
-0.00022802 -0.17131 10.1098 -0.000223043 -0.168088 10.1289 -0.000214905 -0.159179 10.1462 -0.000203866
-0.145026 10.161 -0.000190229 -0.126539 10.1726 -0.000174339 -0.10482 10.181 -0.000156605 -0.0809406
10.1862 -0.000137732 -0.0557598 10.1885 -0.000118083 -0.0298368 10.1881 -9.99935e-05 -0.00665691 9.99904
4.02932e-06 -0.000627772 9.99904 4.02932e-06 -0.000627772 10.188 -9.75458e-05 -0.0035201 10.1849 -7.66185e-05
0.022873 10.179 -5.56641e-05 0.0490307 10.1699 -3.49463e-05 0.074617 10.1576 -1.5042e-05 0.0990212
10.1418 3.7119e-06 0.121263 10.1226 2.10171e-05 0.140128 10.1008 3.6599e-05 0.154373 10.0772
5.02329e-05 0.162998 10.0531 6.17719e-05 0.16549 10.0299 7.11552e-05 0.161951 10.0089 7.8409e-05
0.153097 9.99094 8.3694e-05 0.140108 9.97654 8.72411e-05 0.124415 9.96579 8.92963e-05 0.107467
9.95843 9.01305e-05 0.0905339 9.95396 8.99869e-05 0.0745691 9.95179 8.90717e-05 0.0601758 9.95134
8.75569e-05 0.0476429 9.95212 8.55163e-05 0.03702 9.95374 8.30713e-05 0.0282035 9.9559 8.0394e-05
0.0210089 9.95837 7.75078e-05 0.0152197 9.96102 7.45471e-05 0.0106193 9.96373 7.1187e-05 0.00700688
9.96643 6.78118e-05 0.00420496 9.96906 6.38443e-05 0.00206058 9.97159 6.05633e-05 0.0004449 9.97399
5.72724e-05 -0.000749464 9.97625 5.40528e-05 -0.00161072 9.97837 5.08425e-05 -0.00221066 9.98034 4.76939e-05
-0.00260728 9.98217 4.46345e-05 -0.00284732 9.98385 4.16823e-05 -0.00296795 9.98539 3.88431e-05 -0.00299883
9.9868 3.61246e-05 -0.00296334 9.98809 3.35288e-05 -0.00287985 9.98927 3.10573e-05 -0.00276276 9.99033
2.87064e-05 -0.00262326 9.9913 2.64918e-05 -0.00246998 9.99217 2.43959e-05 -0.00230952 9.99296 2.24204e-05
-0.00214686 9.99367 2.05622e-05 -0.00198575 9.99431 1.88176e-05 -0.00182897 9.99488 1.71829e-05 -0.00167857
9.9954 1.56542e-05 -0.00153601 9.99586 1.42275e-05 -0.00140233 9.99628 1.28994e-05 -0.00127828 9.99665
1.16664e-05 -0.00116437 9.99698 1.05256e-05 -0.00106098 9.99728 9.47438e-06 -0.000968393 9.99755 8.51097e-06
-0.000886847 9.99779 7.63418e-06 -0.00081654 9.998 6.84391e-06 -0.000757627 9.9982 6.14147e-06 -0.000710184
9.99838 5.52987e-06 -0.000674121 9.99854 5.0137e-06 -0.000649053 9.99868 4.59845e-06 -0.000634108 9.99882
4.28971e-06 -0.000627697 9.99896 4.09582e-06 -0.000627072 10 0 0 10.0002 -5.30811e-05
-0.0305649 10.0005 -9.80149e-05 -0.0572296 10.001 -0.000135662 -0.0814541 10.002 -0.000166818 -0.104347
10.0043 -0.000192129 -0.12656 10.0085 -0.00021216 -0.148263 10.0156 -0.000227341 -0.16905 10.026
-0.000237973 -0.187917 10.0401 -0.000244302 -0.20338 10.0575 -0.000246518 -0.213749 10.0773 -0.000244779
-0.217503 10.0981 -0.000239286 -0.213671 10.1182 -0.000230288 -0.2021 10.1361 -0.000218075 -0.183509
10.1508 -0.000202997 -0.159317 10.1619 -0.000185481 -0.131195 10.1692 -0.000166082 -0.100689 10.1734
-0.000145361 -0.0689597 10.1747 -0.000123565 -0.0366777 10.1739 -0.000103621 -0.00802714 9.99891 4.57389e-06
-0.000742515 9.99891 4.57389e-06 -0.000742515 10.1738 -0.000100923 -0.00415002 10.1706 -7.79606e-05 0.0284888
10.165 -5.50399e-05 0.0611257 10.1565 -3.24897e-05 0.0934635 10.1445 -1.07892e-05 0.124757 10.1286
9.65361e-06 0.15369 10.1086 2.84742e-05 0.178507 10.0853 4.53386e-05 0.197333 10.0597 5.99654e-05
0.208631 10.0335 7.21709e-05 0.211591 10.0087 8.188e-05 0.206353 9.98662 8.91305e-05 0.193976
9.96853 9.4144e-05 0.176197 9.95492 9.72473e-05 0.155077 9.94573 9.87802e-05 0.132659 9.94045