# vtk DataFile Version 2.0
track0
ASCII
DATASET POLYDATA
POINTS 19085 float
-1.001 -0.05 0.0011
-1.00015 -0.0500512 0.00110335
-0.999308 -0.0501028 0.00110674
-0.998462 -0.0501548 0.00111015
-0.997616 -0.0502071 0.00111356
-0.996832 -0.050256 0.00111674
-0.995268 -0.0503542 0.00112309
-0.993704 -0.0504537 0.00112945
-0.992141 -0.0505545 0.00113585
-0.990577 -0.0506567 0.00114226
-0.989013 -0.0507604 0.0011487
-0.986517 -0.050928 0.00115907
-0.984021 -0.0510995 0.00116958
-0.981525 -0.051275 0.00118019
-0.97903 -0.0514544 0.0011909
-0.976532 -0.0516381 0.00120172
-0.974036 -0.0518257 0.0012127
-0.97154 -0.0520181 0.00122397
-0.969044 -0.0522151 0.00123534
-0.966549 -0.0524167 0.00124681
-0.964051 -0.0526233 0.00125839
-0.961554 -0.0528346 0.00127025
-0.959058 -0.0530514 0.00128237
-0.956563 -0.0532736 0.0012946
-0.954068 -0.0535011 0.00130694
-0.951568 -0.0537348 0.00131943
-0.949072 -0.0539742 0.00133213
-0.946576 -0.0542204 0.00134525
-0.944081 -0.0544732 0.00135849
-0.941586 -0.0547326 0.00137187
-0.939086 -0.0549993 0.00138543
-0.936589 -0.0552724 0.00139939
-0.934093 -0.0555533 0.0014137
-0.931598 -0.0558419 0.00142817
-0.929104 -0.0561383 0.00144281
-0.926602 -0.0564444 0.00145767
-0.924106 -0.0567583 0.00147282
-0.92161 -0.057082 0.00148857
-0.919115 -0.0574154 0.00150451
-0.916622 -0.0577588 0.00152065
-0.914118 -0.0581138 0.00153709
-0.911619 -0.058478 0.0015541
-0.909121 -0.0588538 0.00157163
-0.906626 -0.0592413 0.00158941
-0.904132 -0.0596413 0.00160743
-0.901622 -0.060057 0.00162583
-0.900373 -0.0602719 0.00163539
-0.899125 -0.0604898 0.00164499
-0.897877 -0.0607106 0.00165466
-0.89663 -0.060935 0.00166439
-0.895378 -0.061164 0.00167427
-0.89413 -0.0613959 0.00168428
-0.892882 -0.0616318 0.00169449
-0.891635 -0.0618716 0.00170478
-0.890388 -0.0621152 0.00171513
-0.889135 -0.0623643 0.00172566
-0.888603 -0.0624717 0.00173023
-0.888071 -0.06258 0.00173482
-0.887539 -0.062689 0.00173946
-0.887008 -0.0627988 0.00174415
-0.886513 -0.0629017 0.00174854
-0.885788 -0.0630534 0.001755
-0.885064 -0.0632065 0.00176148
-0.88434 -0.0633611 0.00176798
-0.883617 -0.0635172 0.00177452
-0.88289 -0.0636754 0.0017811
-0.881641 -0.0639501 0.00179254
-0.880393 -0.0642296 0.00180413
-0.879146 -0.0645137 0.00181585
-0.8779 -0.0648025 0.00182768
-0.876644 -0.0650986 0.00183974
-0.875394 -0.0653981 0.0018519
-0.874146 -0.0657028 0.00186433
-0.872899 -0.0660128 0.00187695
-0.871653 -0.066328 0.00188969
-0.870396 -0.0666515 0.00190276
-0.869145 -0.0669787 0.00191604
-0.867896 -0.0673117 0.0019295
-0.866649 -0.0676505 0.00194314
-0.865403 -0.0679948 0.00195691
-0.864143 -0.0683491 0.00197101
-0.86352 -0.0685274 0.00197808
-0.862897 -0.0687073 0.00198522
-0.862275 -0.0688886 0.0019924
-0.861653 -0.0690715 0.0019996
-0.861083 -0.0692406 0.00200623
-0.860444 -0.0694316 0.00201369
-0.859806 -0.0696243 0.00202119
-0.859168 -0.0698186 0.00202874
-0.858531 -0.0700145 0.00203638
-0.857889 -0.0702136 0.00204418
-0.856637 -0.0706052 0.00205945
-0.855387 -0.0710036 0.00207503
-0.85414 -0.0714086 0.00209086
-0.852895 -0.0718203 0.00210682
-0.85163 -0.0722455 0.00212333
-0.850378 -0.0726735 0.00214003
-0.849128 -0.0731089 0.00215696
-0.847882 -0.0735515 0.00217411
-0.846637 -0.074001 0.00219144
-0.84537 -0.0744666 0.00220931
-0.844781 -0.0746864 0.00221771
-0.844193 -0.074908 0.00222621
-0.843606 -0.0751311 0.00223475
-0.843019 -0.0753559 0.00224332
-0.842476 -0.0755658 0.00225129
-0.841802 -0.0758277 0.0022612
-0.84113 -0.0760919 0.00227118
-0.840458 -0.0763581 0.00228124
-0.839787 -0.0766266 0.00229141
-0.839108 -0.0769005 0.00230179
-0.837855 -0.0774106 0.00232104
-0.836605 -0.0779287 0.00234063
-0.835359 -0.0784546 0.00236053
-0.834115 -0.0789879 0.00238065
-0.832842 -0.0795421 0.00240164
-0.83181 -0.0799984 0.002419
-0.83078 -0.0804603 0.00243647
-0.829753 -0.0809273 0.0024541
-0.828727 -0.0813992 0.0024719
-0.827816 -0.0818238 0.00248787
-0.827566 -0.0819416 0.00249229
-0.827316 -0.0820597 0.00249672
-0.827066 -0.0821781 0.00250115
-0.826816 -0.0822968 0.00250559
-0.826565 -0.0824164 0.00251007
-0.825302 -0.0830203 0.00253269
-0.824043 -0.083632 0.00255552
-0.822787 -0.0842511 0.00257858
-0.821535 -0.0848778 0.00260187
-0.820248 -0.0855297 0.00262599
-0.819201 -0.086067 0.00264579
-0.818157 -0.0866095 0.00266588
-0.817115 -0.087157 0.0026862
-0.816075 -0.0877087 0.00270661
-0.815128 -0.0882159 0.00272534
-0.814888 -0.0883458 0.00273013
-0.814647 -0.088476 0.00273494
-0.814407 -0.0886065 0.00273976
-0.814167 -0.0887372 0.00274459
-0.813926 -0.0888688 0.00274944
-0.812665 -0.0895577 0.00277482
-0.811408 -0.0902533 0.00280047
-0.810154 -0.0909552 0.00282633
-0.808904 -0.091663 0.00285239
-0.807622 -0.0923949 0.00287949
-0.806896 -0.0928129 0.00289499
-0.80617 -0.093233 0.00291049
-0.805446 -0.0936549 0.00292599
-0.804723 -0.094078 0.00294153
-0.804029 -0.0944853 0.00295648
-0.803484 -0.0948063 0.00296826
-0.80294 -0.0951283 0.00298006
-0.802396 -0.0954511 0.00299189
-0.801853 -0.0957749 0.00300375
-0.801305 -0.0961021 0.00301578
-0.800041 -0.0968582 0.00304367
-0.798779 -0.0976181 0.00307165
-0.79752 -0.0983815 0.00309972
-0.796261 -0.0991476 0.00312782
-0.794985 -0.0999279 0.00315637
-0.794705 -0.100099 0.00316262
-0.794426 -0.100271 0.00316888
-0.794147 -0.100442 0.00317516
-0.793867 -0.100614 0.00318145
-0.79359 -0.100785 0.00318769
-0.792607 -0.10139 0.00320988
-0.791624 -0.101997 0.00323212
-0.790642 -0.102604 0.00325439
-0.78966 -0.103213 0.00327662
-0.788672 -0.103827 0.0032989
-0.787626 -0.104476 0.00332239
-0.78658 -0.105127 0.00334601
-0.785534 -0.105779 0.00336978
-0.784489 -0.10643 0.00339361
-0.783451 -0.107075 0.00341721
-0.78323 -0.107213 0.00342224
-0.783008 -0.107351 0.00342726
-0.782787 -0.107488 0.00343228
-0.782565 -0.107626 0.0034373
-0.782344 -0.107763 0.00344231
-0.781076 -0.10855 0.00347094
-0.779807 -0.109336 0.00349962
-0.778539 -0.110122 0.00352829
-0.777269 -0.110906 0.00355688
-0.776004 -0.111683 0.00358528
-0.775446 -0.112024 0.00359774
-0.774888 -0.112364 0.00361018
-0.77433 -0.112704 0.00362257
-0.773772 -0.113043 0.0036349
-0.773206 -0.113386 0.00364731
-0.772504 -0.11381 0.00366262
-0.771801 -0.114233 0.0036779
-0.771098 -0.114655 0.00369321
-0.770394 -0.115077 0.00370858
-0.769695 -0.115494 0.00372385
-0.768432 -0.116244 0.0037514
-0.767167 -0.116991 0.00377882
-0.7659 -0.117735 0.00380603
-0.764631 -0.118474 0.00383287
-0.763379 -0.119195 0.00385921
-0.763217 -0.119288 0.00386261
-0.763054 -0.119381 0.003866
-0.762892 -0.119473 0.00386939
-0.762729 -0.119566 0.00387279
-0.762565 -0.119659 0.00387622
-0.761466 -0.120283 0.0038992
-0.760364 -0.120903 0.00392218
-0.759261 -0.12152 0.00394497
-0.758155 -0.122133 0.00396743
-0.757068 -0.122729 0.00398928
-0.755875 -0.123377 0.00401301
-0.75468 -0.12402 0.00403666
-0.753482 -0.124658 0.00406028
-0.752281 -0.12529 0.00408368
-0.750979 -0.125967 0.00410871
-0.750931 -0.125992 0.00410963
-0.750882 -0.126017 0.00411055
-0.750834 -0.126042 0.00411147
-0.750785 -0.126066 0.00411239
-0.750737 -0.126091 0.00411331
-0.749474 -0.126738 0.00413721
-0.748207 -0.127378 0.00416088
-0.746938 -0.128011 0.00418429
-0.745665 -0.128638 0.00420745
-0.744421 -0.129242 0.0042298
-0.743156 -0.129846 0.00425229
-0.741889 -0.130444 0.00427462
-0.740618 -0.131034 0.00429666
-0.739344 -0.131617 0.00431822
-0.738094 -0.13218 0.00433911
-0.738057 -0.132196 0.00433971
-0.738021 -0.132212 0.00434032
-0.737984 -0.132228 0.00434092
-0.737948 -0.132244 0.00434153
-0.737911 -0.132261 0.00434213
-0.736691 -0.1328 0.00436242
-0.735467 -0.133333 0.00438268
-0.734241 -0.133858 0.00440268
-0.733011 -0.134377 0.0044222
-0.731808 -0.134875 0.00444097
-0.730546 -0.135389 0.00446046
-0.729282 -0.135896 0.00447979
-0.728014 -0.136395 0.00449883
-0.726744 -0.136886 0.00451752
-0.725499 -0.137358 0.00453549
-0.724865 -0.137594 0.00454454
-0.724229 -0.137829 0.00455357
-0.723593 -0.138061 0.00456252
-0.722956 -0.138291 0.00457135
-0.722264 -0.138538 0.0045808
-0.721637 -0.138761 0.00458925
-0.721009 -0.138981 0.00459762
-0.72038 -0.139199 0.00460593
-0.71975 -0.139416 0.00461424
-0.719127 -0.139628 0.00462248
-0.717869 -0.140052 0.00463899
-0.716609 -0.140468 0.00465537
-0.715346 -0.140877 0.00467147
-0.71408 -0.141277 0.00468722
-0.712837 -0.141663 0.00470239
-0.711577 -0.142045 0.00471764
-0.710315 -0.142419 0.00473273
-0.70905 -0.142786 0.00474753
-0.707783 -0.143145 0.00476201
-0.706536 -0.143491 0.00477596
-0.705375 -0.143806 0.00478876
-0.704212 -0.144114 0.00480153
-0.703048 -0.144417 0.00481399
-0.701882 -0.144713 0.00482613
-0.700453 -0.145068 0.00484061
-0.700406 -0.145079 0.00484108
-0.700359 -0.145091 0.00484155
-0.700312 -0.145102 0.00484203
-0.700266 -0.145113 0.0048425
-0.700219 -0.145125 0.00484297
-0.698954 -0.145429 0.00485573
-0.697689 -0.145726 0.00486851
-0.696421 -0.146016 0.00488099
-0.695152 -0.146299 0.00489311
-0.693897 -0.146572 0.00490473
-0.692636 -0.146839 0.00491632
-0.691373 -0.1471 0.00492774
-0.69011 -0.147354 0.00493888
-0.688845 -0.147602 0.00494974
-0.687591 -0.147841 0.00496023
-0.686337 -0.148073 0.00497054
-0.685082 -0.1483 0.00498083
-0.683826 -0.148521 0.00499089
-0.682568 -0.148736 0.0050007
-0.68132 -0.148943 0.00501019
-0.68006 -0.149147 0.00501977
-0.678798 -0.149346 0.00502917
-0.677536 -0.149539 0.00503835
-0.676272 -0.149728 0.00504732
-0.675017 -0.14991 0.00505601
-0.67376 -0.150087 0.00506454
-0.672502 -0.150259 0.00507309
-0.671243 -0.150427 0.00508146
-0.669985 -0.150591 0.00508963
-0.668731 -0.150749 0.00509758
-0.66748 -0.150903 0.00510553
-0.666228 -0.151053 0.00511334
-0.664976 -0.151199 0.005121
-0.663723 -0.151341 0.0051285
-0.662475 -0.151479 0.00513581
-0.661673 -0.151566 0.00514041
-0.660871 -0.151651 0.00514499
-0.660069 -0.151735 0.00514951
-0.659267 -0.151817 0.00515397
-0.658328 -0.151912 0.00515911
-0.657909 -0.151954 0.00516137
-0.657489 -0.151995 0.00516362
-0.657069 -0.152036 0.00516585
-0.65665 -0.152076 0.00516808
-0.65623 -0.152117 0.00517032
-0.654982 -0.152235 0.00517695
-0.653733 -0.152351 0.0051836
[...]
POINT_DATA 19085
 FIELD attributes 1
U 3 19085 float
6.41436 	-0.38822 	0.0253694 6.40151 	-0.390333 	0.0256953 6.38863 	-0.392453 	0.0257164 6.37576 	-0.394576 	0.0257377 6.36288 	-0.396702 	0.0257592 6.35095 	-0.398675 	0.0257792 6.32715 	-0.402611 	0.0257726 6.30335 	-0.406557 	0.0257658 6.27956 	-0.410513 	0.0257587 6.25578 	-0.414479 	0.0257514 6.23238 	-0.418493 	0.0258923 6.19189 	-0.42556 	0.0260779 6.15155 	-0.432461 	0.0261492 6.11124 	-0.439393 	0.0262222 6.07096 	-0.446352 	0.0262946 6.03181 	-0.453434 	0.0265415 5.98888 	-0.461666 	0.02705 5.94623 	-0.469319 	0.027089 5.90362 	-0.47701 	0.0271288 5.86103 	-0.48474 	0.0271696 5.81965 	-0.49259 	0.027655 5.77378 	-0.501524 	0.0280277 5.72839 	-0.509911 	0.0280721 5.68304 	-0.518341 	0.0281177 5.63823 	-0.527203 	0.0281652 5.5953 	-0.53652 	0.0284737 5.54752 	-0.547192 	0.0291467 5.50049 	-0.557343 	0.0291999 5.45257 	-0.566878 	0.029253 5.40471 	-0.576473 	0.0293076 5.35854 	-0.586186 	0.029954 5.30676 	-0.597365 	0.0304298 5.25568 	-0.6078 	0.0304893 5.20519 	-0.618639 	0.0305517 5.1568 	-0.630893 	0.0306195 5.1091 	-0.642348 	0.030999 5.05523 	-0.655631 	0.031907 5.00363 	-0.668911 	0.031982 4.95173 	-0.682042 	0.0320587 4.89808 	-0.694141 	0.0321349 4.84678 	-0.706325 	0.032997 4.78798 	-0.720579 	0.0336093 4.73113 	-0.734614 	0.0336977 4.6767 	-0.750048 	0.0337929 4.62245 	-0.765618 	0.0338914 4.55212 	-0.783532 	0.034847 4.53054 	-0.790654 	0.0348614 4.50725 	-0.797679 	0.0349141 4.47918 	-0.806049 	0.034973 4.45139 	-0.8142 	0.0351189 4.42401 	-0.821862 	0.0354543 4.39353 	-0.830563 	0.0359457 4.3649 	-0.83911 	0.0360205 4.33668 	-0.847658 	0.0360127 4.30856 	-0.856246 	0.03621 4.28075 	-0.864655 	0.0367129 4.26773 	-0.868529 	0.0368446 4.25544 	-0.872316 	0.037143 4.24316 	-0.876111 	0.0374421 4.23088 	-0.879916 	0.0375536 4.21946 	-0.883466 	0.0376028 4.20265 	-0.888695 	0.0376105 4.18586 	-0.89394 	0.0376181 4.1691 	-0.899202 	0.0376256 4.15237 	-0.904479 	0.0376331 4.13644 	-0.909614 	0.0378901 4.10659 	-0.91939 	0.0381387 4.07708 	-0.928773 	0.0382834 4.04767 	-0.938209 	0.0384306 4.01913 	-0.947528 	0.0386176 3.99158 	-0.956731 	0.0388392 3.9612 	-0.967119 	0.0394394 3.9318 	-0.977362 	0.0397928 3.90265 	-0.987257 	0.0399236 3.87423 	-0.996932 	0.0402661 3.84654 	-1.00657 	0.0408375 3.81574 	-1.01741 	0.0411428 3.78597 	-1.02811 	0.0413773 3.75779 	-1.03854 	0.0415542 3.72975 	-1.04903 	0.0417339 3.70193 	-1.05911 	0.0419768 3.68647 	-1.06476 	0.0423046 3.67219 	-1.07015 	0.0423483 3.65808 	-1.07551 	0.0423605 3.644 	-1.0809 	0.0423725 3.63113 	-1.08585 	0.0423834 3.61657 	-1.09149 	0.0424903 3.60206 	-1.09716 	0.0426373 3.58762 	-1.10283 	0.0430373 3.5734 	-1.10846 	0.0433886 3.56019 	-1.11378 	0.0434481 3.53108 	-1.12576 	0.0440245 3.50249 	-1.13713 	0.0444332 3.4742 	-1.14848 	0.0445224 3.44805 	-1.15925 	0.0450071 3.42237 	-1.17004 	0.0456568 3.39343 	-1.1824 	0.0459801 3.36497 	-1.19452 	0.0462766 3.33928 	-1.20624 	0.0465049 3.31413 	-1.21747 	0.0467354 3.28896 	-1.2285 	0.046973 3.27554 	-1.23445 	0.0473218 3.26315 	-1.24006 	0.0474616 3.25135 	-1.24547 	0.0474867 3.23961 	-1.25091 	0.0475117 3.22877 	-1.25596 	0.0475349 3.21508 	-1.26245 	0.0476831 3.20149 	-1.26896 	0.0479195 3.18799 	-1.27549 	0.0483276 3.17524 	-1.28176 	0.0485778 3.16341 	-1.2877 	0.048597 3.13797 	-1.30056 	0.0491755 3.11296 	-1.31331 	0.0497006 3.08942 	-1.32504 	0.0499815 3.06834 	-1.33592 	0.0506002 3.04733 	-1.347 	0.0512571 3.02712 	-1.35758 	0.0513416 3.00863 	-1.36758 	0.05162 2.99204 	-1.3769 	0.0519364 2.97563 	-1.38626 	0.0521523 2.96118 	-1.39465 	0.0523465 2.95706 	-1.39708 	0.0523765 2.95295 	-1.39951 	0.0524065 2.94885 	-1.40195 	0.0524366 2.94524 	-1.40418 	0.0525327 2.94193 	-1.4063 	0.0526737 2.92124 	-1.41877 	0.0529599 2.9012 	-1.43049 	0.0532711 2.88148 	-1.4423 	0.0535955 2.86583 	-1.45212 	0.0537311 2.85027 	-1.46216 	0.0538962 2.83445 	-1.47222 	0.0545254 2.81997 	-1.48171 	0.0549944 2.80806 	-1.48989 	0.055113 2.79638 	-1.49811 	0.0553147 2.78593 	-1.50565 	0.0555672 2.78313 	-1.50778 	0.0556625 2.78034 	-1.5099 	0.055758 2.77757 	-1.51203 	0.0558537 2.77535 	-1.51383 	0.0558579 2.77331 	-1.51554 	0.0558319 2.75921 	-1.52676 	0.056292 2.74557 	-1.53715 	0.0566419 2.73267 	-1.54712 	0.0569547 2.72372 	-1.55469 	0.0575755 2.71471 	-1.5625 	0.0579146 2.70747 	-1.56815 	0.0578582 2.70081 	-1.57349 	0.0578273 2.69664 	-1.5772 	0.0579266 2.69253 	-1.58093 	0.0580263 2.68861 	-1.5845 	0.0581338 2.68477 	-1.58826 	0.0582368 2.68098 	-1.59203 	0.0583402 2.67723 	-1.59581 	0.0584438 2.67561 	-1.59785 	0.0587089 2.67433 	-1.59963 	0.0590033 2.66732 	-1.60602 	0.0591415 2.66051 	-1.61246 	0.059282 2.65761 	-1.61833 	0.059359 2.65674 	-1.6235 	0.0594085 2.65601 	-1.62862 	0.0594197 2.65494 	-1.63001 	0.0595464 2.65395 	-1.63133 	0.0596675 2.65385 	-1.63199 	0.0597318 2.65374 	-1.63264 	0.0597961 2.65364 	-1.63329 	0.0598601 2.65291 	-1.63727 	0.0600271 2.65227 	-1.64127 	0.0601325 2.65175 	-1.6453 	0.0600722 2.65189 	-1.64606 	0.0598125 2.65211 	-1.64651 	0.0595302 2.65133 	-1.64984 	0.0598647 2.6509 	-1.65287 	0.0602768 2.65367 	-1.6525 	0.0604814 2.65646 	-1.65215 	0.0604228 2.65919 	-1.65179 	0.060364 2.65949 	-1.65209 	0.0603272 2.65979 	-1.6524 	0.0602904 2.66008 	-1.6527 	0.0602535 2.66118 	-1.65236 	0.0601833 2.66235 	-1.65195 	0.0601097 2.66561 	-1.65275 	0.0602792 2.66878 	-1.65272 	0.0603078 2.67296 	-1.651 	0.0601939 2.68042 	-1.64611 	0.0601451 2.68765 	-1.6412 	0.060096 2.6894 	-1.64043 	0.0599521 2.69132 	-1.63949 	0.0597939 2.69496 	-1.63686 	0.0595018 2.69855 	-1.63422 	0.0592087 2.70214 	-1.63154 	0.058911 2.70573 	-1.62948 	0.0588126 2.70923 	-1.62738 	0.0589862 2.71267 	-1.62526 	0.0592454 2.71786 	-1.62114 	0.0593358 2.72314 	-1.61679 	0.0594047 2.73038 	-1.61221 	0.0591768 2.73739 	-1.60757 	0.0588137 2.74758 	-1.59912 	0.0581013 2.75766 	-1.59023 	0.0580454 2.76677 	-1.57977 	0.0577736 2.76767 	-1.57887 	0.057777 2.76864 	-1.57788 	0.0577903 2.76995 	-1.57642 	0.0578499 2.77126 	-1.57496 	0.0579095 2.77257 	-1.57349 	0.0579696 2.78023 	-1.56549 	0.0579889 2.78769 	-1.55745 	0.0575714 2.79496 	-1.54938 	0.0568025 2.80378 	-1.53839 	0.0563365 2.81255 	-1.52689 	0.0559457 2.8212 	-1.51783 	0.0558329 2.83014 	-1.50784 	0.0557983 2.84061 	-1.49498 	0.055323 2.85068 	-1.48205 	0.0548408 2.86115 	-1.46798 	0.0543123 2.86148 	-1.46752 	0.0542766 2.86181 	-1.46705 	0.0542409 2.86214 	-1.46659 	0.0542052 2.86251 	-1.46604 	0.0541807 2.86289 	-1.46544 	0.0541611 2.87246 	-1.45183 	0.0536898 2.88133 	-1.43768 	0.0531339 2.88977 	-1.42341 	0.0525686 2.8989 	-1.40652 	0.0520837 2.90767 	-1.38913 	0.0517286 2.91681 	-1.37514 	0.0513838 2.92608 	-1.35996 	0.0507586 2.93579 	-1.3429 	0.0496743 2.94495 	-1.32568 	0.0491893 2.95318 	-1.30841 	0.0490684 2.95341 	-1.30797 	0.0490576 2.95365 	-1.30748 	0.0490574 2.9539 	-1.30696 	0.04907 2.95415 	-1.30643 	0.0490826 2.9544 	-1.30589 	0.0490952 2.96178 	-1.28894 	0.0490531 2.96875 	-1.2719 	0.0483947 2.97529 	-1.25476 	0.0472516 2.9814 	-1.23614 	0.0465103 2.9869 	-1.21667 	0.0461313 2.99479 	-1.19995 	0.0457885 3.00011 	-1.18112 	0.0450693 3.00824 	-1.1631 	0.0442351 3.01456 	-1.14352 	0.0435454 3.01819 	-1.12228 	0.0430384 3.02123 	-1.11336 	0.0429285 3.02414 	-1.10387 	0.0425287 3.02693 	-1.09406 	0.0419726 3.02958 	-1.08422 	0.0414154 3.0323 	-1.0735 	0.0408097 3.03413 	-1.06384 	0.0404467 3.03584 	-1.05414 	0.0400814 3.03739 	-1.04439 	0.0401078 3.03874 	-1.0344 	0.0401434 3.03978 	-1.02401 	0.0398915 3.04507 	-1.00586 	0.0395899 3.04791 	-0.986236 	0.0388632 3.04946 	-0.96592 	0.0379434 3.05021 	-0.945183 	0.0372092 3.04979 	-0.924042 	0.0369289 3.05332 	-0.905732 	0.0364967 3.0535 	-0.885992 	0.0357255 3.05594 	-0.867192 	0.0349335 3.05698 	-0.847849 	0.0342001 3.05474 	-0.827412 	0.0336742 3.05647 	-0.810933 	0.0335555 3.05669 	-0.793852 	0.0327015 3.0565 	-0.776669 	0.031836 3.0559 	-0.759388 	0.0309684 3.05463 	-0.738097 	0.0308194 3.05454 	-0.737385 	0.0308263 3.05444 	-0.736673 	0.0308332 3.05435 	-0.735961 	0.0308401 3.05426 	-0.735249 	0.030847 3.05412 	-0.734529 	0.0308291 3.05244 	-0.716542 	0.0308091 3.0502 	-0.698453 	0.0300306 3.04752 	-0.680269 	0.0291086 3.04439 	-0.661983 	0.0281847 3.03933 	-0.643827 	0.0279322 3.03837 	-0.627215 	0.0274812 3.03445 	-0.610313 	0.0267618 3.02981 	-0.593296 	0.0260055 3.02565 	-0.57662 	0.0253154 3.01923 	-0.560025 	0.0248153 3.01659 	-0.544619 	0.0247247 3.01234 	-0.529613 	0.0241302 3.0071 	-0.514448 	0.0234709 3.00106 	-0.499153 	0.0228231 2.99329 	-0.484319 	0.0227384 2.98962 	-0.470486 	0.0222836 2.9835 	-0.457255 	0.0216982 2.97786 	-0.443853 	0.0211362 2.97185 	-0.430394 	0.0205721 2.96355 	-0.417661 	0.0201084 2.95882 	-0.405604 	0.0201124 2.95271 	-0.394129 	0.0196269 2.94631 	-0.382597 	0.0191385 2.93962 	-0.371011 	0.0186471 2.93102 	-0.360432 	0.0186135 2.92582 	-0.350421 	0.0182541 2.91935 	-0.340828 	0.0178481 2.91265 	-0.331189 	0.0174398 2.90571 	-0.321503 	0.0170291 2.89817 	-0.312254 	0.0166297 2.89451 	-0.306997 	0.0165225 2.89046 	-0.301887 	0.0162804 2.88633 	-0.296761 	0.016038 2.88212 	-0.291621 	0.0157952 2.8771 	-0.285589 	0.0155106 2.87467 	-0.282816 	0.0153938 2.87222 	-0.280039 	0.0152767 2.86975 	-0.27726 	0.0152556 2.86726 	-0.274477 	0.0152694 2.86462 	-0.271759 	0.0152252 2.85841 	-0.264855 	0.0152059 2.85192 	-0.258099 	0.0148905 2.84528 	-0.251319 	0.0145745 2.83847 	-0.244516 	0.014258 2.83099 	-0.237909 	0.014144 2.82542 	-0.231706 	0.0138768 2.81934 	-0.226149 	0.0136421 2.81314 	-0.220573 	0.0134064 2.80677 	-0.215029 	0.0131722 2.79962 	-0.209701 	0.0129148 2.7943 	-0.204162 	0.0129443 2.7886 	-0.199557 	0.0127523 2.78282 	-0.194988 	0.0125611 2.77693 	-0.190405 	0.012369 2.77026 	-0.186055 	0.0123972 2.76546 	-0.181494 	0.0121789 2.76031 	-0.177783 	0.0120236 2.75507 	-0.174061 	0.0118676 2.74945 	-0.169865 	0.0116961 2.74339 	-0.166166 	0.0114954 2.73874 	-0.16217 	0.0115257 2.73361 	-0.158526 	0.0113785 2.7288 	-0.155386 	0.0112479 2.72392 	-0.152238 	0.0111168 2.71838 	-0.149286 	0.0111481 2.71429 	-0.146007 	0.0109792 2.71003 	-0.143424 	0.0108721 2.70564 	-0.140759 	0.010762 2.70064 	-0.137479 	0.0106307 2.69557 	-0.134892 	0.0104751 2.69159 	-0.131953 	0.0105032 2.6871 	-0.129184 	0.0103926 2.68294 	-0.12678 	0.0102943 2.6789 	-0.124557 	0.0102022 2.67432 	-0.122504 	0.0102315 2.67088 	-0.120093 	0.0101 2.66735 	-0.118238 	0.0100234 2.66342 	-0.116065 	0.00993568 2.65917 	-0.113652 	0.00983954 2.65493 	-0.111792 	0.00971769 2.65153 	-0.10958 	0.00974223 2.64772 	-0.107517 	0.00966017 2.64396 	-0.10554 	0.00958098 2.64062 	-0.10392 	0.0095142 2.6368 	-0.102448 	0.00953972 2.6339 	-0.100632 	0.00943575 2.63095 	-0.0992574 	0.00937852 2.6274 	-0.0974571 	0.00930599 2.62378 	-0.09564 	0.00923276 2.62021 	-0.0942605 	0.00913367 2.61729 	-0.0925566 	0.00915274 2.61403 	-0.0909824 	0.0090883 2.61073 	-0.0894055 	0.00902368 2.60783 	-0.0881189 	0.00896955 2.60462 	-0.0870319 	0.00898979 2.60216 	-0.0856315 	0.00890471 2.5995 	-0.0844751 	0.00885583 2.59644 	-0.0830772 	0.00879798 2.59335 	-0.0816771 	0.00873998 2.5903 	-0.0806266 	0.00865922 2.5878 	-0.0792863 	0.00867406 2.585 	-0.0780593 	0.00862299 2.58216 	-0.0768304 	0.00857179 2.57953 	-0.0757381 	0.0085256 2.57681 	-0.0749132 	0.00854245 2.57471 	-0.0738116 	0.00847318 2.57229 	-0.0728215 	0.00843102 2.56965 	-0.0717218 	0.0083847 2.56698 	-0.0706205 	0.00833827 2.56437 	-0.0697997 	0.00827134 2.56219 	-0.0687257 	0.00828282 2.55977 	-0.0677498 	0.00824106 2.55732 	-0.0667727 	0.00819921 2.55493 	-0.0658377 	0.00815889 2.5526 	-0.0651954 	0.00817175 2.5508 	-0.0643123 	0.00811397 2.54858 	-0.0634588 	0.00807727 2.54629 	-0.0625766 	0.00803945 2.54398 	-0.0616933 	0.00800155 2.54171 	-0.061037 	0.00794581 2.53982 	-0.0601614 	0.00795488 2.5377 	-0.0593713 	0.00792136 2.53557 	-0.0585802 	0.00788775 2.53342 	-0.0577883 	0.00785408 2.53137 	-0.0572626 	0.00786463 2.52977 	-0.0565223 	0.00781635 2.52778 	-0.0558037 	0.00778579 2.52578 	-0.0550845 	0.00775516 2.52376 	-0.0543645 	0.00772447 2.52177 	-0.0538296 	0.00767759 2.5201 	-0.0531061 	0.00768495 2.51825 	-0.0524566 	0.00765662 2.51638 	-0.0518064 	0.00762825 2.51449 	-0.0511556 	0.00759981 2.51262 	-0.0506922 	0.00760607 2.51115 	-0.0500484 	0.00756358 2.5094 	-0.0494536 	0.00753704 2.50764 	-0.0488582 	0.00751045 2.50586 	-0.0482622 	0.0074838 2.50411 	-0.0478186 	0.00744318 2.50264 	-0.0472128 	0.00744828 2.501 	-0.046671 	0.007424 2.49935 	-0.0461296 	0.00739924 2.49768 	-0.0455885 	0.00737403 2.49598 	-0.0451747 	0.00737568 2.49464 	-0.0446247 	0.00734075 2.49309 	-0.044129 	0.00731807 2.49153 	-0.0436328 	0.00729534 2.48996 	-0.0431362 	0.00727259 2.4884 	-0.0427376 	0.00724011 2.48706 	-0.0422382 	0.00723808 2.4856 	-0.0417818 	0.00721682 2.48413 	-0.041325 	0.00719554 2.48265 	-0.0408679 	0.00717423 2.48115 	-0.0404829 	0.00717094 2.4799 	-0.0400301 	0.00714742 2.47852 	-0.0396091 	0.00712829 2.47714 	-0.0391878 	0.00710913 2.47574 	-0.0387661 	0.00708995 2.47434 	-0.0383953 	0.00706541 2.47311 	-0.0379826 	0.00705754 2.47181 	-0.037593 	0.00703958 2.4705 	-0.0372031 	0.0070216 2.46918 	-0.0368129 	0.0070036 2.46784 	-0.0364551 	0.00699679 2.46668 	-0.036079 	0.00698044 2.46545 	-0.0357173 	0.00696299 2.46421 	-0.0353553 	0.00694552 2.46296 	-0.0349931 	0.00692802 2.4617 	-0.0346475 	0.0069085 2.46056 	-0.0343033 	0.00689447 2.45939 	-0.033967 	0.00687702 2.45822 	-0.0336304 	0.00685955 2.45703 	-0.0332936 	0.00684206 2.45584 	-0.0329607 	0.00683101 2.45552 	-0.0328668 	0.00682924 2.45519 	-0.0327745 	0.00682628 2.45487 	-0.0326819 	0.00682136 2.45454 	-0.0325893 	0.00681643 2.4542 	-0.0324942 	0.00681137 2.4534 	-0.0322735 	0.00679949 2.45259 	-0.0320527 	0.0067876 2.45178 	-0.0318317 	0.0067757 2.45097 	-0.0316107 	0.00676379 2.45013 	-0.0313932 	0.00675338 2.44906 	-0.0310935 	0.00673657 2.44798 	-0.0308009 	0.00672077 2.44689 	-0.0305081 	0.00670496 2.44579 	-0.0302151 	0.00668914 2.44466 	-0.0299306 	0.0066747 2.44364 	-0.0296415 	0.00666632 2.44261 	-0.0293683 	0.00665094 2.44158 	-0.0290949 	0.00663554 2.44053 	-0.0288214 	0.00662013 2.43943 	-0.0285601 	0.00660961 2.43848 	-0.0282807 	0.00659143 2.4375 	-0.028025 	0.0065766 2.43652 	-0.0277692 	0.00656175 2.43552 	-0.0275133 	0.0065469 2.43448 	-0.0272734 	0.00652939 2.43356 	-0.0270031 	0.00652326 2.43263 	-0.0267633 	0.00650924 2.43169 	-0.0265235 	0.00649521 2.43075 	-0.0262835 	0.00648116 2.42971 	-0.0260622 	0.00647467 2.42887 	-0.0258014 	0.00645662 2.42798 	-0.0255765 	0.00644398 2.42708 	-0.0253514 	0.00643133 2.42618 	-0.0251263 	0.00641866 2.4252 	-0.0249229 	0.0064003 2.42438 	-0.0246705 	0.00639709 2.42353 	-0.0244593 	0.00638506 2.42268 	-0.0242482 	0.00637314 2.42181 	-0.0240376 	0.00636139 2.42084 	-0.0238487 	0.00635806 2.42008 	-0.0236104 	0.00634054 2.41927 	-0.023413 	0.00632888 2.41846 	-0.0232156 	0.0063172 2.41764 	-0.023018 	0.00630551 2.41672 	-0.0228357 	0.00628769 2.41596 	-0.0226058 	0.00628402 2.41518 	-0.0224189 	0.00627241 2.4144 	-0.0222319 	0.0062608 2.41362 	-0.0220448 	0.00624917 2.41273 	-0.0218764 	0.00624467 2.41204 	-0.0216658 	0.00622861 2.41131 	-0.0214897 	0.00621765 2.41056 	-0.0213135 	0.00620668 2.40982 	-0.0211372 	0.0061957 2.40897 	-0.0209678 	0.00617926 2.40826 	-0.0207582 	0.00617537 2.40755 	-0.0205908 	0.00616507 2.40684 	-0.0204232 	0.00615475 2.40612 	-0.0202556 	0.00614443 2.40531 	-0.0201038 	0.00613979 2.40469 	-0.0199167 	0.00612589 2.40401 	-0.0197584 	0.00611609 2.40333 	-0.0196001 	0.00610629 2.40265 	-0.0194417 	0.00609647 2.40186 	-0.0192838 	0.00608162 2.40119 	-0.0190926 	0.00607776 2.40055 	-0.0189421 	0.00606872 2.39989 	-0.0187916 	0.00605967 2.39924 	-0.018641 	0.00605061 2.3985 	-0.0185039 	0.00604629 2.39793 	-0.0183371 	0.00603438 2.39731 	-0.0181945 	0.00602579 2.39669 	-0.0180519 	0.00601719 2.39606 	-0.0179092 	0.00600857 2.39532 	-0.0177619 	0.00599517 2.3947 	-0.0175866 	0.00599038 2.39411 	-0.0174502 	0.0059812 2.39351 	-0.0173138 	0.00597202 2.3929 	-0.0171773 	0.00596283 2.39223 	-0.0170521 	0.00595706 2.3917 	-0.0169023 	0.00594439 2.39113 	-0.0167727 	0.0059346 2.39055 	-0.0166431 	0.0059248 2.38997 	-0.0165134 	0.005915 2.38928 	-0.0163757 	0.00590073 2.3887 	-0.0162153 	0.00589394 2.38815 	-0.0160918 	0.0058841 2.3876 	-0.0159683 	0.00587425 2.38704 	-0.0158447 	0.0058644 2.38642 	-0.0157307 	0.00585774 2.38593 	-0.0155969 	0.00584566 2.3854 	-0.0154798 	0.00583615 2.38487 	-0.0153628 	0.00582663 2.38434 	-0.0152457 	0.00581711 2.3837 	-0.0151173 	0.00580369 2.38315 	-0.0149708 	0.0057965 2.38264 	-0.0148592 	0.005787 2.38213 	-0.0147476 	0.0057775 2.38161 	-0.014636 	0.00576799 2.38104 	-0.0145323 	0.00576102 2.38059 	-0.0144124 	0.00574947 2.38011 	-0.0143062 	0.0057399 2.37962 	-0.0142 	0.00573032 2.37913 	-0.0140938 	0.00572073 2.37852 	-0.0139743 	0.00570773 2.37801 	-0.01384 	0.00570033 2.37754 	-0.0137384 	0.00569128 2.37707 	-0.0136367 	0.00568223 2.3766 	-0.013535 	0.00567317 2.37607 	-0.0134399 	0.00566633 2.37566 	-0.0133318 	0.00565635 2.37521 	-0.0132351 	0.00564819 2.37475 	-0.0131384 	0.00564003 2.3743 	-0.0130417 	0.00563187 2.37373 	-0.0129297 	0.00562091 2.37325 	-0.0128065 	0.00561441 2.37281 	-0.0127142 	0.00560661 2.37238 	-0.0126218 	0.00559879 2.37194 	-0.0125294 	0.00559098 2.37145 	-0.0124423 	0.00558486 2.37107 	-0.0123451 	0.00557548 2.37065 	-0.012257 	0.0055674 2.37023 	-0.0121689 	0.00555932 2.36981 	-0.0120808 	0.00555124 2.36928 	-0.0119764 	0.0055405 2.36882 	-0.0118633 	0.00553293 2.36842 	-0.0117786 	0.00552465 2.36802 	-0.0116939 	0.00551638 2.36761 	-0.0116093 	0.00550809 2.36716 	-0.0115288 	0.00550118 2.3668 	-0.0114405 	0.00549221 2.36642 	-0.0113593 	0.00548434 2.36603 	-0.0112782 	0.00547647 2.36564 	-0.011196 	0.00546852 2.36515 	-0.0110982 	0.00545814 2.36473 	-0.010994 	0.00545096 2.36435 	-0.0109145 	0.00544347 2.36397 	-0.0108361 	0.00543606 2.3636 	-0.0107577 	0.00542864 2.36319 	-0.0106826 	0.00542216 2.36285 	-0.0106018 	0.00541428 2.36249 	-0.0105265 	0.00540717 2.36213 	-0.0104512 	0.00540006 2.36176 	-0.010374 	0.00539283 2.36131 	-0.0102825 	0.00538358 2.36091 	-0.010187 	0.0053773 2.36056 	-0.0101126 	0.0053707 2.36021 	-0.0100402 	0.0053642 2.35986 	-0.00996774 	0.00535769 2.35949 	-0.00989769 	0.00535188 2.35917 	-0.0098239 	0.00534512 2.35884 	-0.00975421 	0.0053389 2.3585 	-0.00968451 	0.00533267 2.35816 	-0.00961219 	0.00532631 2.35774 	-0.00952636 	0.00531836 2.35736 	-0.00943788 	0.00531129 2.35703 	-0.00936752 	0.00530417 2.3567 	-0.00929978 	0.00529719 2.35638 	-0.00923202 	0.00529021 2.35603 	-0.00916593 	0.00528357 2.35573 	-0.00909776 	0.00527541 2.35542 	-0.00903246 	0.00526765 2.3551 	-0.00896714 	0.00525988 2.35477 	-0.00889878 	0.00525191 2.35438 	-0.0088182 	0.00524238 2.35403 	-0.00873694 	0.00523371 2.35371 	-0.00867107 	0.00522554 2.3534 	-0.00860826 	0.00521761 2.3531 	-0.00854543 	0.00520968 2.35278 	-0.0084837 	0.00520204 2.35249 	-0.0084218 	0.00519404 2.3522 	-0.00836174 	0.00518633 2.3519 	-0.00830167 	0.00517862 2.35159 	-0.00823811 	0.00517061 2.35123 	-0.00816269 	0.00516121 2.35089 	-0.00808814 	0.00515245 2.35059 	-0.00802701 	0.00514437 2.35031 	-0.00796934 	0.00513658 2.35002 	-0.00791166 	0.00512879 2.34972 	-0.00785453 	0.00512114 2.34945 	-0.00779815 	0.00511304 2.34918 	-0.00774269 	0.00510509 2.3489 	-0.00768723 	0.00509712 2.34861 	-0.00762808 	0.00508887 2.34827 	-0.00755793 	0.00507957 2.34795 	-0.00748947 	0.00507124 2.34767 	-0.00743226 	0.00506351 2.34741 	-0.00737867 	0.00505601 2.34714 	-0.00732506 	0.00504852 2.34686 	-0.00727155 	0.00504105 2.34673 	-0.00724523 	0.00503764 2.3466 	-0.00721908 	0.00503425 2.34647 	-0.00719293 	0.00503086 2.34634 	-0.00716678 	0.00502748 2.34621 	-0.00714047 	0.00502407 2.34608 	-0.00711515 	0.0050208 2.34595 	-0.00708984 	0.00501753 2.34581 	-0.00706034 	0.00501401 2.34566 	-0.00702796 	0.00501033 2.34551 	-0.00699576 	0.00500667 2.34521 	-0.00693242 	0.00499949 2.34495 	-0.00687911 	0.00499291 2.3447 	-0.00682965 	0.00498655 2.34445 	-0.00678018 	0.00498018 2.3442 	-0.00673101 	0.00497369 2.34396 	-0.0066829 	0.0049671 2