# vtk DataFile Version 2.0
track0
ASCII
DATASET POLYDATA
POINTS 19085 float
-1.001 -0.05 0.0011
-1.00015 -0.0500512 0.00110335
-0.999308 -0.0501028 0.00110674
-0.998462 -0.0501548 0.00111015
-0.997616 -0.0502071 0.00111356
-0.996832 -0.050256 0.00111674
-0.995268 -0.0503542 0.00112309
-0.993704 -0.0504537 0.00112945
-0.992141 -0.0505545 0.00113585
-0.990577 -0.0506567 0.00114226
-0.989013 -0.0507604 0.0011487
-0.986517 -0.050928 0.00115907
-0.984021 -0.0510995 0.00116958
-0.981525 -0.051275 0.00118019
-0.97903 -0.0514544 0.0011909
-0.976532 -0.0516381 0.00120172
-0.974036 -0.0518257 0.0012127
-0.97154 -0.0520181 0.00122397
-0.969044 -0.0522151 0.00123534
-0.966549 -0.0524167 0.00124681
-0.964051 -0.0526233 0.00125839
-0.961554 -0.0528346 0.00127025
-0.959058 -0.0530514 0.00128237
-0.956563 -0.0532736 0.0012946
-0.954068 -0.0535011 0.00130694
-0.951568 -0.0537348 0.00131943
-0.949072 -0.0539742 0.00133213
-0.946576 -0.0542204 0.00134525
-0.944081 -0.0544732 0.00135849
-0.941586 -0.0547326 0.00137187
-0.939086 -0.0549993 0.00138543
-0.936589 -0.0552724 0.00139939
-0.934093 -0.0555533 0.0014137
-0.931598 -0.0558419 0.00142817
-0.929104 -0.0561383 0.00144281
-0.926602 -0.0564444 0.00145767
-0.924106 -0.0567583 0.00147282
-0.92161 -0.057082 0.00148857
-0.919115 -0.0574154 0.00150451
-0.916622 -0.0577588 0.00152065
-0.914118 -0.0581138 0.00153709
-0.911619 -0.058478 0.0015541
-0.909121 -0.0588538 0.00157163
-0.906626 -0.0592413 0.00158941
-0.904132 -0.0596413 0.00160743
-0.901622 -0.060057 0.00162583
-0.900373 -0.0602719 0.00163539
-0.899125 -0.0604898 0.00164499
-0.897877 -0.0607106 0.00165466
-0.89663 -0.060935 0.00166439
-0.895378 -0.061164 0.00167427
-0.89413 -0.0613959 0.00168428
-0.892882 -0.0616318 0.00169449
-0.891635 -0.0618716 0.00170478
-0.890388 -0.0621152 0.00171513
-0.889135 -0.0623643 0.00172566
-0.888603 -0.0624717 0.00173023
-0.888071 -0.06258 0.00173482
-0.887539 -0.062689 0.00173946
-0.887008 -0.0627988 0.00174415
-0.886513 -0.0629017 0.00174854
-0.885788 -0.0630534 0.001755
-0.885064 -0.0632065 0.00176148
-0.88434 -0.0633611 0.00176798
-0.883617 -0.0635172 0.00177452
-0.88289 -0.0636754 0.0017811
-0.881641 -0.0639501 0.00179254
-0.880393 -0.0642296 0.00180413
-0.879146 -0.0645137 0.00181585
-0.8779 -0.0648025 0.00182768
-0.876644 -0.0650986 0.00183974
-0.875394 -0.0653981 0.0018519
-0.874146 -0.0657028 0.00186433
-0.872899 -0.0660128 0.00187695
-0.871653 -0.066328 0.00188969
-0.870396 -0.0666515 0.00190276
-0.869145 -0.0669787 0.00191604
-0.867896 -0.0673117 0.0019295
-0.866649 -0.0676505 0.00194314
-0.865403 -0.0679948 0.00195691
-0.864143 -0.0683491 0.00197101
-0.86352 -0.0685274 0.00197808
-0.862897 -0.0687073 0.00198522
-0.862275 -0.0688886 0.0019924
-0.861653 -0.0690715 0.0019996
-0.861083 -0.0692406 0.00200623
-0.860444 -0.0694316 0.00201369
-0.859806 -0.0696243 0.00202119
-0.859168 -0.0698186 0.00202874
-0.858531 -0.0700145 0.00203638
-0.857889 -0.0702136 0.00204418
-0.856637 -0.0706052 0.00205945
-0.855387 -0.0710036 0.00207503
-0.85414 -0.0714086 0.00209086
-0.852895 -0.0718203 0.00210682
-0.85163 -0.0722455 0.00212333
-0.850378 -0.0726735 0.00214003
-0.849128 -0.0731089 0.00215696
-0.847882 -0.0735515 0.00217411
-0.846637 -0.074001 0.00219144
-0.84537 -0.0744666 0.00220931
-0.844781 -0.0746864 0.00221771
-0.844193 -0.074908 0.00222621
-0.843606 -0.0751311 0.00223475
-0.843019 -0.0753559 0.00224332
-0.842476 -0.0755658 0.00225129
-0.841802 -0.0758277 0.0022612
-0.84113 -0.0760919 0.00227118
-0.840458 -0.0763581 0.00228124
-0.839787 -0.0766266 0.00229141
-0.839108 -0.0769005 0.00230179
-0.837855 -0.0774106 0.00232104
-0.836605 -0.0779287 0.00234063
-0.835359 -0.0784546 0.00236053
-0.834115 -0.0789879 0.00238065
-0.832842 -0.0795421 0.00240164
-0.83181 -0.0799984 0.002419
-0.83078 -0.0804603 0.00243647
-0.829753 -0.0809273 0.0024541
-0.828727 -0.0813992 0.0024719
-0.827816 -0.0818238 0.00248787
-0.827566 -0.0819416 0.00249229
-0.827316 -0.0820597 0.00249672
-0.827066 -0.0821781 0.00250115
-0.826816 -0.0822968 0.00250559
-0.826565 -0.0824164 0.00251007
-0.825302 -0.0830203 0.00253269
-0.824043 -0.083632 0.00255552
-0.822787 -0.0842511 0.00257858
-0.821535 -0.0848778 0.00260187
-0.820248 -0.0855297 0.00262599
-0.819201 -0.086067 0.00264579
-0.818157 -0.0866095 0.00266588
-0.817115 -0.087157 0.0026862
-0.816075 -0.0877087 0.00270661
-0.815128 -0.0882159 0.00272534
-0.814888 -0.0883458 0.00273013
-0.814647 -0.088476 0.00273494
-0.814407 -0.0886065 0.00273976
-0.814167 -0.0887372 0.00274459
-0.813926 -0.0888688 0.00274944
-0.812665 -0.0895577 0.00277482
-0.811408 -0.0902533 0.00280047
-0.810154 -0.0909552 0.00282633
-0.808904 -0.091663 0.00285239
-0.807622 -0.0923949 0.00287949
-0.806896 -0.0928129 0.00289499
-0.80617 -0.093233 0.00291049
-0.805446 -0.0936549 0.00292599
-0.804723 -0.094078 0.00294153
-0.804029 -0.0944853 0.00295648
-0.803484 -0.0948063 0.00296826
-0.80294 -0.0951283 0.00298006
-0.802396 -0.0954511 0.00299189
-0.801853 -0.0957749 0.00300375
-0.801305 -0.0961021 0.00301578
-0.800041 -0.0968582 0.00304367
-0.798779 -0.0976181 0.00307165
-0.79752 -0.0983815 0.00309972
-0.796261 -0.0991476 0.00312782
-0.794985 -0.0999279 0.00315637
-0.794705 -0.100099 0.00316262
-0.794426 -0.100271 0.00316888
-0.794147 -0.100442 0.00317516
-0.793867 -0.100614 0.00318145
-0.79359 -0.100785 0.00318769
-0.792607 -0.10139 0.00320988
-0.791624 -0.101997 0.00323212
-0.790642 -0.102604 0.00325439
-0.78966 -0.103213 0.00327662
-0.788672 -0.103827 0.0032989
-0.787626 -0.104476 0.00332239
-0.78658 -0.105127 0.00334601
-0.785534 -0.105779 0.00336978
-0.784489 -0.10643 0.00339361
-0.783451 -0.107075 0.00341721
-0.78323 -0.107213 0.00342224
-0.783008 -0.107351 0.00342726
-0.782787 -0.107488 0.00343228
-0.782565 -0.107626 0.0034373
-0.782344 -0.107763 0.00344231
-0.781076 -0.10855 0.00347094
-0.779807 -0.109336 0.00349962
-0.778539 -0.110122 0.00352829
-0.777269 -0.110906 0.00355688
-0.776004 -0.111683 0.00358528
-0.775446 -0.112024 0.00359774
-0.774888 -0.112364 0.00361018
-0.77433 -0.112704 0.00362257
-0.773772 -0.113043 0.0036349
-0.773206 -0.113386 0.00364731
-0.772504 -0.11381 0.00366262
-0.771801 -0.114233 0.0036779
-0.771098 -0.114655 0.00369321
-0.770394 -0.115077 0.00370858
-0.769695 -0.115494 0.00372385
-0.768432 -0.116244 0.0037514
-0.767167 -0.116991 0.00377882
-0.7659 -0.117735 0.00380603
-0.764631 -0.118474 0.00383287
-0.763379 -0.119195 0.00385921
-0.763217 -0.119288 0.00386261
-0.763054 -0.119381 0.003866
-0.762892 -0.119473 0.00386939
-0.762729 -0.119566 0.00387279
-0.762565 -0.119659 0.00387622
-0.761466 -0.120283 0.0038992
-0.760364 -0.120903 0.00392218
-0.759261 -0.12152 0.00394497
-0.758155 -0.122133 0.00396743
-0.757068 -0.122729 0.00398928
-0.755875 -0.123377 0.00401301
-0.75468 -0.12402 0.00403666
-0.753482 -0.124658 0.00406028
-0.752281 -0.12529 0.00408368
-0.750979 -0.125967 0.00410871
-0.750931 -0.125992 0.00410963
-0.750882 -0.126017 0.00411055
-0.750834 -0.126042 0.00411147
-0.750785 -0.126066 0.00411239
-0.750737 -0.126091 0.00411331
-0.749474 -0.126738 0.00413721
-0.748207 -0.127378 0.00416088
-0.746938 -0.128011 0.00418429
-0.745665 -0.128638 0.00420745
-0.744421 -0.129242 0.0042298
-0.743156 -0.129846 0.00425229
-0.741889 -0.130444 0.00427462
-0.740618 -0.131034 0.00429666
-0.739344 -0.131617 0.00431822
-0.738094 -0.13218 0.00433911
-0.738057 -0.132196 0.00433971
-0.738021 -0.132212 0.00434032
-0.737984 -0.132228 0.00434092
-0.737948 -0.132244 0.00434153
-0.737911 -0.132261 0.00434213
-0.736691 -0.1328 0.00436242
-0.735467 -0.133333 0.00438268
-0.734241 -0.133858 0.00440268
-0.733011 -0.134377 0.0044222
-0.731808 -0.134875 0.00444097
-0.730546 -0.135389 0.00446046
-0.729282 -0.135896 0.00447979
-0.728014 -0.136395 0.00449883
-0.726744 -0.136886 0.00451752
-0.725499 -0.137358 0.00453549
-0.724865 -0.137594 0.00454454
-0.724229 -0.137829 0.00455357
-0.723593 -0.138061 0.00456252
-0.722956 -0.138291 0.00457135
-0.722264 -0.138538 0.0045808
-0.721637 -0.138761 0.00458925
-0.721009 -0.138981 0.00459762
-0.72038 -0.139199 0.00460593
-0.71975 -0.139416 0.00461424
-0.719127 -0.139628 0.00462248
-0.717869 -0.140052 0.00463899
-0.716609 -0.140468 0.00465537
-0.715346 -0.140877 0.00467147
-0.71408 -0.141277 0.00468722
-0.712837 -0.141663 0.00470239
-0.711577 -0.142045 0.00471764
-0.710315 -0.142419 0.00473273
-0.70905 -0.142786 0.00474753
-0.707783 -0.143145 0.00476201
-0.706536 -0.143491 0.00477596
-0.705375 -0.143806 0.00478876
-0.704212 -0.144114 0.00480153
-0.703048 -0.144417 0.00481399
-0.701882 -0.144713 0.00482613
-0.700453 -0.145068 0.00484061
-0.700406 -0.145079 0.00484108
-0.700359 -0.145091 0.00484155
-0.700312 -0.145102 0.00484203
-0.700266 -0.145113 0.0048425
-0.700219 -0.145125 0.00484297
-0.698954 -0.145429 0.00485573
-0.697689 -0.145726 0.00486851
-0.696421 -0.146016 0.00488099
-0.695152 -0.146299 0.00489311
-0.693897 -0.146572 0.00490473
-0.692636 -0.146839 0.00491632
-0.691373 -0.1471 0.00492774
-0.69011 -0.147354 0.00493888
-0.688845 -0.147602 0.00494974
-0.687591 -0.147841 0.00496023
-0.686337 -0.148073 0.00497054
-0.685082 -0.1483 0.00498083
-0.683826 -0.148521 0.00499089
-0.682568 -0.148736 0.0050007
-0.68132 -0.148943 0.00501019
-0.68006 -0.149147 0.00501977
-0.678798 -0.149346 0.00502917
-0.677536 -0.149539 0.00503835
-0.676272 -0.149728 0.00504732
-0.675017 -0.14991 0.00505601
-0.67376 -0.150087 0.00506454
-0.672502 -0.150259 0.00507309
-0.671243 -0.150427 0.00508146
-0.669985 -0.150591 0.00508963
-0.668731 -0.150749 0.00509758
-0.66748 -0.150903 0.00510553
-0.666228 -0.151053 0.00511334
-0.664976 -0.151199 0.005121
-0.663723 -0.151341 0.0051285
-0.662475 -0.151479 0.00513581
-0.661673 -0.151566 0.00514041
-0.660871 -0.151651 0.00514499
-0.660069 -0.151735 0.00514951
-0.659267 -0.151817 0.00515397
-0.658328 -0.151912 0.00515911
-0.657909 -0.151954 0.00516137
-0.657489 -0.151995 0.00516362
-0.657069 -0.152036 0.00516585
-0.65665 -0.152076 0.00516808
-0.65623 -0.152117 0.00517032
-0.654982 -0.152235 0.00517695
-0.653733 -0.152351 0.0051836
[...]
POINT_DATA 19085
 FIELD attributes 2
p 1 19085 float
1.10733e+06 1.10733e+06 1.10734e+06 1.10734e+06 1.10734e+06 1.10734e+06 1.10735e+06 1.10735e+06 1.10735e+06 1.10736e+06 1.10736e+06 1.10737e+06 1.10737e+06 1.10738e+06 1.10739e+06 1.10739e+06 1.1074e+06 1.10741e+06 1.10742e+06 1.10742e+06 1.10743e+06 1.10744e+06 1.10745e+06 1.10745e+06 1.10746e+06 1.10747e+06 1.10748e+06 1.10749e+06 1.1075e+06 1.10751e+06 1.10751e+06 1.10753e+06 1.10754e+06 1.10755e+06 1.10755e+06 1.10756e+06 1.10758e+06 1.10759e+06 1.1076e+06 1.10761e+06 1.10762e+06 1.10763e+06 1.10764e+06 1.10766e+06 1.10767e+06 1.10769e+06 1.10768e+06 1.10768e+06 1.10769e+06 1.1077e+06 1.10772e+06 1.10773e+06 1.10774e+06 1.10774e+06 1.10775e+06 1.10776e+06 1.10777e+06 1.10777e+06 1.10777e+06 1.10778e+06 1.10778e+06 1.10779e+06 1.10779e+06 1.10779e+06 1.1078e+06 1.1078e+06 1.10781e+06 1.10782e+06 1.10783e+06 1.10784e+06 1.10785e+06 1.10786e+06 1.10787e+06 1.10788e+06 1.10788e+06 1.10789e+06 1.1079e+06 1.10791e+06 1.10792e+06 1.10793e+06 1.10794e+06 1.10795e+06 1.10795e+06 1.10796e+06 1.10796e+06 1.10796e+06 1.10797e+06 1.10797e+06 1.10798e+06 1.10798e+06 1.10799e+06 1.108e+06 1.10801e+06 1.10802e+06 1.10803e+06 1.10804e+06 1.10805e+06 1.10806e+06 1.10807e+06 1.10808e+06 1.10809e+06 1.10809e+06 1.1081e+06 1.1081e+06 1.10811e+06 1.10811e+06 1.10812e+06 1.10812e+06 1.10813e+06 1.10813e+06 1.10814e+06 1.10815e+06 1.10816e+06 1.10817e+06 1.10818e+06 1.10819e+06 1.10819e+06 1.1082e+06 1.10821e+06 1.10822e+06 1.10822e+06 1.10823e+06 1.10823e+06 1.10823e+06 1.10823e+06 1.10823e+06 1.10824e+06 1.10825e+06 1.10826e+06 1.10827e+06 1.10828e+06 1.10828e+06 1.10829e+06 1.10829e+06 1.1083e+06 1.10831e+06 1.10831e+06 1.10831e+06 1.10831e+06 1.10831e+06 1.10831e+06 1.10832e+06 1.10832e+06 1.10833e+06 1.10833e+06 1.10834e+06 1.10834e+06 1.10834e+06 1.10835e+06 1.10835e+06 1.10836e+06 1.10836e+06 1.10836e+06 1.10837e+06 1.10838e+06 1.10838e+06 1.10839e+06 1.1084e+06 1.10841e+06 1.10842e+06 1.10843e+06 1.10843e+06 1.10842e+06 1.10842e+06 1.10842e+06 1.10842e+06 1.10841e+06 1.10841e+06 1.1084e+06 1.10839e+06 1.10838e+06 1.10838e+06 1.10838e+06 1.10837e+06 1.10837e+06 1.10837e+06 1.10836e+06 1.10836e+06 1.10836e+06 1.10836e+06 1.10836e+06 1.10836e+06 1.10835e+06 1.10835e+06 1.10834e+06 1.10834e+06 1.10833e+06 1.10833e+06 1.10833e+06 1.10832e+06 1.10832e+06 1.10831e+06 1.10831e+06 1.10831e+06 1.1083e+06 1.1083e+06 1.10829e+06 1.10828e+06 1.10826e+06 1.10825e+06 1.10824e+06 1.10824e+06 1.10824e+06 1.10824e+06 1.10823e+06 1.10823e+06 1.10822e+06 1.10821e+06 1.1082e+06 1.10819e+06 1.10818e+06 1.10816e+06 1.10815e+06 1.10813e+06 1.10812e+06 1.1081e+06 1.1081e+06 1.1081e+06 1.1081e+06 1.1081e+06 1.1081e+06 1.10808e+06 1.10807e+06 1.10805e+06 1.10803e+06 1.10802e+06 1.108e+06 1.10798e+06 1.10796e+06 1.10794e+06 1.10792e+06 1.10792e+06 1.10792e+06 1.10792e+06 1.10792e+06 1.10792e+06 1.1079e+06 1.10788e+06 1.10786e+06 1.10785e+06 1.10783e+06 1.10781e+06 1.10779e+06 1.10777e+06 1.10775e+06 1.10773e+06 1.10772e+06 1.10771e+06 1.1077e+06 1.10769e+06 1.10767e+06 1.10766e+06 1.10765e+06 1.10764e+06 1.10764e+06 1.10763e+06 1.1076e+06 1.10758e+06 1.10756e+06 1.10754e+06 1.10752e+06 1.1075e+06 1.10748e+06 1.10746e+06 1.10745e+06 1.10743e+06 1.10741e+06 1.10739e+06 1.10738e+06 1.10736e+06 1.10734e+06 1.10734e+06 1.10734e+06 1.10734e+06 1.10734e+06 1.10734e+06 1.10732e+06 1.1073e+06 1.10728e+06 1.10727e+06 1.10725e+06 1.10724e+06 1.10722e+06 1.1072e+06 1.10719e+06 1.10717e+06 1.10716e+06 1.10715e+06 1.10713e+06 1.10712e+06 1.10711e+06 1.10709e+06 1.10708e+06 1.10707e+06 1.10706e+06 1.10705e+06 1.10704e+06 1.10703e+06 1.10702e+06 1.10701e+06 1.107e+06 1.107e+06 1.10699e+06 1.10698e+06 1.10697e+06 1.10697e+06 1.10696e+06 1.10696e+06 1.10696e+06 1.10695e+06 1.10695e+06 1.10695e+06 1.10695e+06 1.10694e+06 1.10694e+06 1.10694e+06 1.10694e+06 1.10693e+06 1.10693e+06 1.10692e+06 1.10692e+06 1.10692e+06 1.10691e+06 1.10691e+06 1.10691e+06 1.1069e+06 1.1069e+06 1.1069e+06 1.10689e+06 1.10689e+06 1.10689e+06 1.10689e+06 1.10689e+06 1.10688e+06 1.10688e+06 1.10688e+06 1.10688e+06 1.10688e+06 1.10688e+06 1.10687e+06 1.10687e+06 1.10687e+06 1.10687e+06 1.10687e+06 1.10687e+06 1.10687e+06 1.10687e+06 1.10687e+06 1.10687e+06 1.10686e+06 1.10686e+06 1.10686e+06 1.10686e+06 1.10686e+06 1.10686e+06 1.10686e+06 1.10686e+06 1.10686e+06 1.10686e+06 1.10686e+06 1.10686e+06 1.10686e+06 1.10686e+06 1.10686e+06 1.10686e+06 1.10686e+06 1.10686e+06 1.10686e+06 1.10686e+06 1.10686e+06 1.10686e+06 1.10686e+06 1.10686e+06 1.10686e+06 1.10686e+06 1.10686e+06 1.10686e+06 1.10686e+06 1.10686e+06 1.10686e+06 1.10686e+06 1.10686e+06 1.10686e+06 1.10686e+06 1.10686e+06 1.10686e+06 1.10686e+06 1.10686e+06 1.10686e+06 1.10686e+06 1.10686e+06 1.10686e+06 1.10686e+06 1.10686e+06 1.10686e+06 1.10686e+06 1.10686e+06 1.10686e+06 1.10686e+06 1.10686e+06 1.10686e+06 1.10686e+06 1.10686e+06 1.10686e+06 1.10686e+06 1.10686e+06 1.10686e+06 1.10686e+06 1.10686e+06 1.10686e+06 1.10686e+06 1.10686e+06 1.10686e+06 1.10686e+06 1.10686e+06 1.10686e+06 1.10686e+06 1.10686e+06 1.10686e+06 1.10686e+06 1.10686e+06 1.10686e+06 1.10686e+06 1.10686e+06 1.10686e+06 1.10686e+06 1.10686e+06 1.10686e+06 1.10686e+06 1.10686e+06 1.10686e+06 1.10686e+06 1.10686e+06 1.10686e+06 1.10686e+06 1.10686e+06 1.10686e+06 1.10686e+06 1.10686e+06 1.10686e+06 1.10686e+06 1.10686e+06 1.10686e+06 1.10686e+06 1.10686e+06 1.10686e+06 1.10686e+06 1.10686e+06 1.10686e+06 1.10686e+06 1.10686e+06 1.10686e+06 1.10686e+06 1.10686e+06 1.10686e+06 1.10686e+06 1.10686e+06 1.10686e+06 1.10686e+06 1.10686e+06 1.10686e+06 1.10686e+06 1.10686e+06 1.10686e+06 1.10686e+06 1.10686e+06 1.10686e+06 1.10686e+06 1.10686e+06 1.10686e+06 1.10686e+06 1.10686e+06 1.10686e+06 1.10686e+06 1.10686e+06 1.10686e+06 1.10686e+06 1.10686e+06 1.10686e+06 1.10686e+06 1.10686e+06 1.10686e+06 1.10686e+06 1.10686e+06 1.10686e+06 1.10686e+06 1.10686e+06 1.10686e+06 1.10686e+06 1.10686e+06 1.10686e+06 1.10686e+06 1.10686e+06 1.10686e+06 1.10686e+06 1.10686e+06 1.10686e+06 1.10686e+06 1.10686e+06 1.10686e+06 1.10686e+06 1.10686e+06 1.10686e+06 1.10686e+06 1.10686e+06 1.10686e+06 1.10686e+06 1.10686e+06 1.10686e+06 1.10686e+06 1.10686e+06 1.10686e+06 1.10686e+06 1.10686e+06 1.10686e+06 1.10686e+06 1.10686e+06 1.10686e+06 1.10687e+06 1.10687e+06 1.10687e+06 1.10687e+06 1.10687e+06 1.10687e+06 1.10687e+06 1.10687e+06 1.10687e+06 1.10687e+06 1.10687e+06 1.10687e+06 1.10687e+06 1.10687e+06 1.10687e+06 1.10687e+06 1.10687e+06 1.10687e+06 1.10687e+06 1.10687e+06 1.10687e+06 1.10687e+06 1.10687e+06 1.10687e+06 1.10687e+06 1.10687e+06 1.10687e+06 1.10687e+06 1.10687e+06 1.10687e+06 1.10687e+06 1.10687e+06 1.10687e+06 1.10687e+06 1.10687e+06 1.10687e+06 1.10687e+06 1.10687e+06 1.10687e+06 1.10687e+06 1.10687e+06 1.10687e+06 1.10687e+06 1.10687e+06 1.10687e+06 1.10687e+06 1.10687e+06 1.10687e+06 1.10687e+06 1.10687e+06 1.10687e+06 1.10687e+06 1.10687e+06 1.10687e+06 1.10687e+06 1.10687e+06 1.10687e+06 1.10687e+06 1.10687e+06 1.10687e+06 1.10687e+06 1.10687e+06 1.10687e+06 1.10687e+06 1.10687e+06 1.10687e+06 1.10687e+06 1.10687e+06 1.10687e+06 1.10687e+06 1.10687e+06 1.10687e+06 1.10687e+06 1.10687e+06 1.10687e+06 1.10687e+06 1.10687e+06 1.10687e+06 1.10687e+06 1.10687e+06 1.10687e+06 1.10687e+06 1.10687e+06 1.10687e+06 1.10687e+06 1.10687e+06 1.10687e+06 1.10687e+06 1.10687e+06 1.10687e+06 1.10687e+06 1.10687e+06 1.10687e+06 1.10687e+06 1.10687e+06 1.10687e+06 1.10687e+06 1.10687e+06 1.10687e+06 1.10687e+06 1.10687e+06 1.10687e+06 1.10687e+06 1.10687e+06 1.10687e+06 1.10687e+06 1.10687e+06 1.10687e+06 1.10687e+06 1.10687e+06 1.10687e+06 1.10687e+06 1.10687e+06 1.10687e+06 1.10687e+06 1.10687e+06 1.10687e+06 1.10687e+06 1.10687e+06 1.10687e+06 1.10687e+06 1.10687e+06 1.10687e+06 1.10687e+06 1.10687e+06 1.10687e+06 1.10687e+06 1.10687e+06 1.10687e+06 1.10687e+06 1.10687e+06 1.10687e+06 1.10687e+06 1.10687e+06 1.10687e+06 1.10687e+06 1.10687e+06 1.10687e+06 1.10687e+06 1.10687e+06 1.10687e+06 1.10687e+06 1.10687e+06 1.10687e+06 1.10687e+06 1.10687e+06 1.10687e+06 1.10687e+06 1.10687e+06 1.10687e+06 1.10687e+06 1.10687e+06 1.10687e+06 1.10687e+06 1.10687e+06 1.10687e+06 1.10687e+06 1.10687e+06 1.10687e+06 1.10687e+06 1.10687e+06 1.10687e+06 1.10687e+06 1.10687e+06 1.10687e+06 1.10687e+06 1.10687e+06 1.10687e+06 1.10687e+06 1.10687e+06 1.10687e+06 1.10687e+06 1.10687e+06 1.10687e+06 1.10687e+06 1.10687e+06 1.10687e+06 1.10687e+06 1.10687e+06 1.10687e+06 1.10687e+06 1.10687e+06 1.10687e+06 1.10687e+06 1.10687e+06 1.10687e+06 1.10687e+06 1.10687e+06 1.10687e+06 1.10687e+06 1.10687e+06 1.10687e+06 1.10687e+06 1.10687e+06 1.10687e+06 1.10687e+06 1.10687e+06 1.10687e+06 1.10687e+06 1.10687e+06 1.10687e+06 1.10687e+06 1.10687e+06 1.10687e+06 1.10687e+06 1.10687e+06 1.10687e+06 1.10687e+06 1.10687e+06 1.10687e+06 1.10687e+06 1.10687e+06 1.10687e+06 1.10687e+06 1.10687e+06 1.10687e+06 1.10687e+06 1.10687e+06 1.10687e+06 1.10687e+06 1.10687e+06 1.10687e+06 1.10687e+06 1.10687e+06 1.10687e+06 1.10687e+06 1.10687e+06 1.10687e+06 1.10687e+06 1.10687e+06 1.10687e+06 1.10687e+06 1.10687e+06 1.10687e+06 1.10687e+06 1.10687e+06 1.10687e+06 1.10687e+06 1.10687e+06 1.10687e+06 1.10687e+06 1.10687e+06 1.10687e+06 1.10687e+06 1.10687e+06 1.10687e+06 1.10687e+06 1.10687e+06 1.10687e+06 1.10687e+06 1.10687e+06 1.10687e+06 1.10687e+06 1.10687e+06 1.10687e+06 1.10687e+06 1.10687e+06 1.10687e+06 1.10687e+06 1.10687e+06 1.10687e+06 1.10687e+06 1.10687e+06 1.10687e+06 1.10687e+06 1.10687e+06 1.10687e+06 1.10687e+06 1.10687e+06 1.10687e+06 1.10687e+06 1.10687e+06 1.10687e+06 1.10687e+06 1.10687e+06 1.10687e+06 1.10687e+06 1.10687e+06 1.10687e+06 1.10687e+06 1.10687e+06 1.10687e+06 1.10687e+06 1.10687e+06 1.10687e+06 1.10687e+06 1.10687e+06 1.10687e+06 1.10687e+06 1.10687e+06 1.10687e+06 1.10687e+06 1.10687e+06 1.10687e+06 1.10687e+06 1.10687e+06 1.10687e+06 1.10687e+06 1.10687e+06 1.10687e+06 1.10687e+06 1.10687e+06 1.10687e+06 1.10687e+06 1.10687e+06 1.10687e+06 1.10687e+06 1.10687e+06 1.10687e+06 1.10687e+06 1.10687e+06 1.10687e+06 1.10687e+06 1.10687e+06 1.10687e+06 1.10687e+06 1.10687e+06 1.10687e+06 1.10687e+06 1.10687e+06 1.10687e+06 1.10687e+06 1.10688e+06 1.10688e+06 1.10688e+06 1.10688e+06 1.10688e+06 1.10688e+06 1.10688e+06 1.10688e+06 1.10688e+06 1.10688e+06 1.10688e+06 1.10688e+06 1.10688e+06 1.10688e+06 1.10688e+06 1.10688e+06 1.10688e+06 1.10688e+06 1.10688e+06 1.10688e+06 1.10688e+06 1.10688e+06 1.10688e+06 1.10688e+06 1.10688e+06 1.10688e+06 1.10688e+06 1.10688e+06 1.10688e+06 1.10688e+06 1.10688e+06 1.10688e+06 1.10688e+06 1.10688e+06 1.10688e+06 1.10688e+06 1.10688e+06 1.10688e+06 1.10688e+06 1.10688e+06 1.10688e+06 1.10688e+06 1.10688e+06 1.10688e+06 1.10688e+06 1.10688e+06 1.10688e+06 1.10688e+06 1.10688e+06 1.10688e+06 1.10688e+06 1.10688e+06 1.10688e+06 1.10688e+06 1.10688e+06 1.10688e+06 1.10688e+06 1.10688e+06 1.10688e+06 1.10688e+06 1.10688e+06 1.10688e+06 1.10688e+06 1.10688e+06 1.10688e+06 1.10688e+06 1.10688e+06 1.10688e+06 1.10688e+06 1.10688e+06 1.10688e+06 1.10688e+06 1.10688e+06 1.10688e+06 1.10688e+06 1.10688e+06 1.10688e+06 1.10688e+06 1.10688e+06 1.10688e+06 1.10688e+06 1.10688e+06 1.10688e+06 1.10688e+06 1.10688e+06 1.10688e+06 1.10688e+06 1.10688e+06 1.10688e+06 1.10688e+06 1.10688e+06 1.10688e+06 1.10688e+06 1.10688e+06 1.10688e+06 1.10688e+06 1.10688e+06 1.10688e+06 1.10688e+06 1.10688e+06 1.10688e+06 1.10688e+06 1.10688e+06 1.10688e+06 1.10688e+06 1.10688e+06 1.10688e+06 1.10688e+06 1.10688e+06 1.10688e+06 1.10688e+06 1.10688e+06 1.10688e+06 1.10688e+06 1.10688e+06 1.10688e+06 1.10688e+06 1.10689e+06 1.10689e+06 1.10689e+06 1.10689e+06 1.10689e+06 1.10689e+06 1.10689e+06 1.10689e+06 1.10689e+06 1.10689e+06 1.10689e+06 1.10689e+06 1.10689e+06 1.10689e+06 1.10689e+06 1.10689e+06 1.10689e+06 1.10689e+06 1.10689e+06 1.10689e+06 1.10689e+06 1.10689e+06 1.10689e+06 1.10689e+06 1.10689e+06 1.10689e+06 1.10689e+06 1.10689e+06 1.10689e+06 1.10689e+06 1.10689e+06 1.10689e+06 1.10689e+06 1.10689e+06 1.10689e+06 1.1069e+06 1.1069e+06 1.1069e+06 1.1069e+06 1.1069e+06 1.1069e+06 1.1069e+06 1.1069e+06 1.1069e+06 1.1069e+06 1.1069e+06 1.1069e+06 1.1069e+06 1.1069e+06 1.1069e+06 1.1069e+06 1.1069e+06 1.1069e+06 1.1069e+06 1.1069e+06 1.10691e+06 1.10691e+06 1.10691e+06 1.10691e+06 1.10691e+06 1.10691e+06 1.10691e+06 1.10691e+06 1.10691e+06 1.10691e+06 1.10691e+06 1.10691e+06 1.10691e+06 1.10691e+06 1.10692e+06 1.10692e+06 1.10692e+06 1.10692e+06 1.10692e+06 1.10692e+06 1.10692e+06 1.10692e+06 1.10692e+06 1.10692e+06 1.10692e+06 1.10693e+06 1.10693e+06 1.10693e+06 1.10693e+06 1.10693e+06 1.10693e+06 1.10693e+06 1.10693e+06 1.10693e+06 1.10694e+06 1.10694e+06 1.10694e+06 1.10694e+06 1.10694e+06 1.10694e+06 1.10694e+06 1.10694e+06 1.10695e+06 1.10695e+06 1.10695e+06 1.10695e+06 1.10695e+06 1.10695e+06 1.10695e+06 1.10696e+06 1.10696e+06 1.10696e+06 1.10696e+06 1.10696e+06 1.10696e+06 1.10697e+06 1.10697e+06 1.10697e+06 1.10697e+06 1.10697e+06 1.10698e+06 1.10698e+06 1.10698e+06 1.10698e+06 1.10698e+06 1.10699e+06 1.10699e+06 1.10699e+06 1.10699e+06 1.107e+06 1.107e+06 1.107e+06 1.107e+06 1.10701e+06 1.10701e+06 1.10701e+06 1.10702e+06 1.10702e+06 1.10702e+06 1.10702e+06 1.10703e+06 1.10703e+06 1.10703e+06 1.10704e+06 1.10704e+06 1.10705e+06 1.10705e+06 1.10705e+06 1.10706e+06 1.10706e+06 1.10706e+06 1.10707e+06 1.10707e+06 1.10708e+06 1.10708e+06 1.10709e+06 1.10709e+06 1.1071e+06 1.1071e+06 1.10711e+06 1.10711e+06 1.10712e+06 1.10712e+06 1.10713e+06 1.10713e+06 1.10714e+06 1.10715e+06 1.10715e+06 1.10716e+06 1.10717e+06 1.10717e+06 1.10718e+06 1.10719e+06 1.1072e+06 1.10721e+06 1.10721e+06 1.10722e+06 1.10723e+06 1.10724e+06 1.10725e+06 1.10726e+06 1.10727e+06 1.10728e+06 1.10729e+06 1.1073e+06 1.10731e+06 1.10732e+06 1.10734e+06 1.10735e+06 1.10736e+06 1.10737e+06 1.10738e+06 1.10739e+06 1.1074e+06 1.1074e+06 1.1074e+06 1.10741e+06 1.10741e+06 1.10742e+06 1.10743e+06 1.10744e+06 1.10745e+06 1.10746e+06 1.10747e+06 1.10749e+06 1.10751e+06 1.10752e+06 1.10754e+06 1.10756e+06 1.10759e+06 1.10762e+06 1.10765e+06 1.10766e+06 1.10768e+06 1.10771e+06 1.10773e+06 1.10775e+06 1.10778e+06 1.1078e+06 1.10784e+06 1.10787e+06 1.1079e+06 1.10792e+06 1.10795e+06 1.10799e+06 1.10802e+06 1.10805e+06 1.10808e+06 1.10811e+06 1.10812e+06 1.10812e+06 1.10812e+06 1.10812e+06 1.10813e+06 1.10813e+06 1.10814e+06 1.10815e+06 1.10816e+06 1.10816e+06 1.10819e+06 1.10821e+06 1.10824e+06 1.10826e+06 1.10828e+06 1.10831e+06 1.10836e+06 1.1084e+06 1.10841e+06 1.10845e+06 1.10848e+06 1.1085e+06 1.10846e+06 1.10843e+06 1.10838e+06 1.10834e+06 1.10833e+06 1.10833e+06 1.10832e+06 1.10831e+06 1.1083e+06 1.10829e+06 1.10827e+06 1.10826e+06 1.10825e+06 1.10818e+06 1.10809e+06 1.10801e+06 1.10793e+06 1.10784e+06 1.10769e+06 1.10755e+06 1.10747e+06 1.10741e+06 1.10736e+06 1.10727e+06 1.10722e+06 1.10718e+06 1.10715e+06 1.10712e+06 1.10712e+06 1.10712e+06 1.10712e+06 1.10712e+06 1.10712e+06 1.1071e+06 1.10709e+06 1.10707e+06 1.10705e+06 1.10704e+06 1.10703e+06 1.10702e+06 1.10701e+06 1.107e+06 1.10699e+06 1.10698e+06 1.10697e+06 1.10696e+06 1.10696e+06 1.10695e+06 1.10694e+06 1.10694e+06 1.10693e+06 1.10693e+06 1.10692e+06 1.10692e+06 1.10692e+06 1.10691e+06 1.10691e+06 1.10691e+06 1.1069e+06 1.1069e+06 1.1069e+06 1.1069e+06 1.10689e+06 1.10689e+06 1.10689e+06 1.10689e+06 1.10689e+06 1.10688e+06 1.10688e+06 1.10688e+06 1.10688e+06 1.10688e+06 1.10688e+06 1.10687e+06 1.10687e+06 1.10687e+06 1.10687e+06 1.10687e+06 1.10687e+06 1.10686e+06 1.10686e+06 1.10686e+06 1.10686e+06 1.10686e+06 1.10686e+06 1.10686e+06 1.10685e+06 1.10685e+06 1.10685e+06 1.10685e+06 1.10685e+06 1.10684e+06 1.10684e+06 1.10684e+06 1.10684e+06 1.10683e+06 1.10683e+06 1.10683e+06 1.10683e+06 1.10682e+06 1.10682e+06 1.10682e+06 1.10681e+06 1.10681e+06 1.1068e+06 1.1068e+06 1.10679e+06 1.10679e+06 1.10678e+06 1.10677e+06 1.10677e+06 1.10676e+06 1.10675e+06 1.10674e+06 1.10673e+06 1.10672e+06 1.10671e+06 1.1067e+06 1.10669e+06 1.10668e+06 1.10667e+06 1.10667e+06 1.10666e+06 1.10666e+06 1.10665e+06 1.10665e+06 1.10664e+06 1.10664e+06 1.10663e+06 1.10662e+06 1.1066e+06 1.10659e+06 1.10658e+06 1.10656e+06 1.10654e+06 1.10652e+06 1.1065e+06 1.10646e+06 1.10636e+06 1.10623e+06 1.10611e+06 1.10599e+06 1.10575e+06 1.10557e+06 1.10544e+06 1.10527e+06 1.10511e+06 1.105e+06 1.10499e+06 1.10497e+06 1.10496e+06 1.10496e+06 1.10495e+06 1.1049e+06 1.10486e+06 1.10481e+06 1.10476e+06 1.10472e+06 1.10475e+06 1.10477e+06 1.10478e+06 1.10475e+06 1.10472e+06 1.10474e+06 1.10475e+06 1.10477e+06 1.10478e+06 1.1048e+06 1.10482e+06 1.10483e+06 1.10485e+06 1.10487e+06 1.1049e+06 1.10493e+06 1.10497e+06 1.10501e+06 1.10506e+06 1.10513e+06 1.10516e+06 1.1052e+06 1.10524e+06 1.10528e+06 1.10533e+06 1.10535e+06 1.10537e+06 1.10539e+06 1.10541e+06 1.10543e+06 1.10545e+06 1.10546e+06 1.10548e+06 1.1055e+06 1.10552e+06 1.10555e+06 1.10558e+06 1.10562e+06 1.10565e+06 1.10567e+06 1.10569e+06 1.10571e+06 1.10572e+06 1.10574e+06 1.10576e+06 1.10577e+06 1.10578e+06 1.1058e+06 1.10582e+06 1.10584e+06 1.10584e+06 1.10585e+06 1.10585e+06 1.10585e+06 1.10585e+06 1.10587e+06 1.10588e+06 1.1059e+06 1.10591e+06 1.10592e+06 1.10594e+06 1.10595e+06 1.10596e+06 1.10597e+06 1.10599e+06 1.10599e+06 1.106e+06 1.10601e+06 1.10602e+06 1.10603e+06 1.10604e+06 1.10604e+06 1.10605e+06 1.10606e+06 1.10606e+06 1.10606e+06 1.10607e+06 1.10607e+06 1.10607e+06 1.10607e+06 1.10607e+06 1.10607e+06 1.10607e+06 1.10607e+06 1.10608e+06 1.10608e+06 1.10608e+06 1.10608e+06 1.10609e+06 1.10609e+06 1.10609e+06 1.10609e+06 1.1061e+06 1.1061e+06 1.1061e+06 1.10611e+06 1.10611e+06 1.10611e+06 1.10611e+06 1.10611e+06 1.10612e+06 1.10612e+06 1.10612e+06 1.10612e+06 1.10612e+06 1.10612e+06 1.10612e+06 1.10612e+06 1.10612e+06 1.10612e+06 1.10612e+06 1.10612e+06 1.10612e+06 1.10612e+06 1.10612e+06 1.10612e+06 1.10612e+06 1.10612e+06 1.10612e+06 1.10611e+06 1.10611e+06 1.10611e+06 1.10611e+06 1.10611e+06 1.10611e+06 1.10611e+06 1.10611e+06 1.10611e+06 1.10611e+06 1.10611e+06 1.10611e+06 1.1061e+06 1.1061e+06 1.1061e+06 1.1061e+06 1.1061e+06 1.10609e+06 1.10609e+06 1.10609e+06 1.10609e+06 1.10608e+06 1.10608e+06 1.10608e+06 1.10607e+06 1.10607e+06 1.10607e+06 1.10607e+06 1.10607e+06 1.10607e+06 1.10607e+06 1.10607e+06 1.10606e+06 1.10606e+06 1.10606e+06 1.10605e+06 1.10605e+06 1.10605e+06 1.10605e+06 1.10604e+06 1.10604e+06 1.10603e+06 1.10603e+06 1.10603e+06 1.10602e+06 1.10602e+06 1.10602e+06 1.10602e+06 1.10602e+06 1.10602e+06 1.10602e+06 1.10602e+06 1.10601e+06 1.10601e+06 1.106e+06 1.106e+06 1.106e+06 1.10599e+06 1.10599e+06 1.10599e+06 1.10598e+06 1.10598e+06 1.10598e+06 1.10598e+06 1.10597e+06 1.10597e+06 1.10597e+06 1.10597e+06 1.10597e+06 1.10596e+06 1.10596e+06 1.10596e+06 1.10595e+06 1.10595e+06 1.10595e+06 1.10594e+06 1.10594e+06 1.10593e+06 1.10593e+06 1.10593e+06 1.10592e+06 1.10592e+06 1.10592e+06 1.10592e+06 1.10592e+06 1.10592e+06 1.10592e+06 1.10592e+06 1.10591e+06 1.10591e+06 1.1059e+06 1.1059e+06 1.1059e+06 1.1059e+06 1.10589e+06 1.10589e+06 1.10589e+06 1.10589e+06 1.10588e+06 1.10588e+06 1.10587e+06 1.10587e+06 1.10586e+06 1.10586e+06 1.10585e+06 1.10585e+06 1.10578e+06 1.10571e+06 1.10571e+06 1.10576e+06 1.10581e+06 1.10581e+06 1.10581e+06 1.10582e+06 1.10582e+06 1.10582e+06 1.10583e+06 1.10583e+06 1.10583e+06 1.10583e+06 1.10583e+06 1.10582e+06 1.10582e+06 1.10581e+06 1.10581e+06 1.10582e+06 1.10582e+06 1.10582e+06 1.10581e+06 1.10581e+06 1.10581e+06 1.10581e+06 1.10581e+06 1.10581e+06 1.1058e+06 1.1058e+06 1.1058e+06 1.1058e+06 1.1058e+06 1.1058e+06 1.1058e+06 1.1058e+06 1.1058e+06 1.1058e+06 1.1058e+06 1.1058e+06 1.1058e+06 1.1058e+06 1.1058e+06 1.1058e+06 1.1058e+06 1.1058e+06 1.1058e+06 1.1058e+06 1.1058e+06 1.1058e+06 1.1058e+06 1.1058e+06 1.1058e+06 1.1058e+06 1.10581e+06 1.10581e+06 1.10581e+06 1.10582e+06 1.10582e+06 1.10582e+06 1.10582e+06 1.10582e+06 1.10583e+06 1.10583e+06 1.10583e+06 1.10583e+06 1.10583e+06 1.10584e+06 1.10584e+06 1.10584e+06 1.10585e+06 1.10585e+06 1.10586e+06 1.10586e+06 1.10587e+06 1.10587e+06 1.10588e+06 1.10588e+06 1.10589e+06 1.1059e+06 1.1059e+06 1.1059e+06 1.1059e+06 1.1059e+06 1.10591e+06 1.10591e+06 1.10591e+06 1.10592e+06 1.10592e+0